96
 energy: -153.249565711610 gnorm: 0.320465502275 xtb: 6.5.0 (homebrew)
C            2.45951200000000        7.10000000000000        0.00000000000000
C            1.22975600000000        7.81000000000000       -0.22857100000000
C            0.00000000000000        7.10000000000000       -0.22857100000000
C            0.00000000000000        5.68000000000000       -0.45714300000000
C            1.22975600000000        4.97000000000000       -0.45714300000000
C            2.45951200000000        5.68000000000000        0.00000000000000
C            4.91902400000000        7.10000000000000        0.22857100000000
C            3.68926800000000        7.81000000000000        0.22857100000000
C            3.68926800000000        4.97000000000000        0.45714300000000
C            4.91902400000000        5.68000000000000        0.45714300000000
C            6.14878000000000        4.97000000000000        0.68571400000000
C            3.68926800000000        3.55000000000000        0.91428600000000
C            4.91902400000000        2.84000000000000        0.91428600000000
C            6.14878000000000        3.55000000000000        0.68571400000000
C            3.68926800000000        0.71000000000000        1.37142900000000
C            2.45951200000000        1.42000000000000        1.37142900000000
C            1.22975600000000        0.71000000000000       -1.60000000000000
C            1.22975600000000       -0.71000000000000       -1.60000000000000
C            2.45951200000000       -1.42000000000000        1.60000000000000
C            3.68926800000000       -0.71000000000000        1.60000000000000
C            0.00000000000000        1.42000000000000       -1.60000000000000
C           -1.22975600000000        0.71000000000000       -1.60000000000000
C           -1.22975600000000       -0.71000000000000       -1.60000000000000
C            0.00000000000000       -1.42000000000000       -1.60000000000000
C            0.00000000000000        2.84000000000000       -0.91428600000000
C           -1.22975600000000        3.55000000000000       -0.91428600000000
C           -2.45951200000000        2.84000000000000       -1.14285700000000
C           -2.45951200000000        1.42000000000000       -1.14285700000000
C            2.45951200000000        2.84000000000000        1.14285700000000
C            4.91902400000000        1.42000000000000        1.14285700000000
C           -1.22975600000000        4.97000000000000       -0.68571400000000
C            1.22975600000000        3.55000000000000       -0.68571400000000
C           -1.22975600000000        0.71000000000000        1.60000000000000
C           -2.45951200000000        1.42000000000000        1.60000000000000
C           -3.68926800000000        0.71000000000000        1.60000000000000
C           -3.68926800000000       -0.71000000000000        1.37142900000000
C           -2.45951200000000       -1.42000000000000        1.37142900000000
C           -1.22975600000000       -0.71000000000000        1.60000000000000
C            1.22975600000000        0.71000000000000        1.60000000000000
C            0.00000000000000        1.42000000000000        1.60000000000000
C            0.00000000000000       -1.42000000000000        1.60000000000000
C            1.22975600000000       -0.71000000000000        1.60000000000000
C            2.45951200000000       -1.42000000000000       -1.14285700000000
C            0.00000000000000       -2.84000000000000       -0.91428600000000
C            1.22975600000000       -3.55000000000000       -0.91428600000000
C            2.45951200000000       -2.84000000000000       -1.14285700000000
C            0.00000000000000       -5.68000000000000       -0.45714300000000
C           -1.22975600000000       -4.97000000000000       -0.45714300000000
C           -2.45951200000000       -5.68000000000000        0.00000000000000
C           -2.45951200000000       -7.10000000000000        0.00000000000000
C           -1.22975600000000       -7.81000000000000       -0.22857100000000
C            0.00000000000000       -7.10000000000000       -0.22857100000000
C           -3.68926800000000       -4.97000000000000        0.45714300000000
C           -4.91902400000000       -5.68000000000000        0.45714300000000
C           -4.91902400000000       -7.10000000000000        0.22857100000000
C           -3.68926800000000       -7.81000000000000        0.22857100000000
C           -3.68926800000000       -3.55000000000000        0.91428600000000
C           -4.91902400000000       -2.84000000000000        0.91428600000000
C           -6.14878000000000       -3.55000000000000        0.68571400000000
C           -6.14878000000000       -4.97000000000000        0.68571400000000
C           -1.22975600000000       -3.55000000000000       -0.68571400000000
C            1.22975600000000       -4.97000000000000       -0.68571400000000
C           -4.91902400000000       -1.42000000000000        1.14285700000000
C           -2.45951200000000       -2.84000000000000        1.14285700000000
H            1.24167700000000        8.88625700000000       -0.40070400000000
H           -0.93802600000000        7.62780400000000       -0.05643900000000
H            5.85705000000000        7.62780400000000        0.05643900000000
H            3.67734700000000        8.88625700000000        0.40070400000000
H            7.07488500000000        5.51845200000000        0.85784700000000
H            7.07488500000000        3.00154800000000        0.51358200000000
H            2.17372400000000        1.25500000000000       -1.60000000000000
H            2.45951200000000       -2.51000000000000        1.60000000000000
H            4.62729400000000       -1.23780400000000        1.77213300000000
H           -2.17372400000000       -1.25500000000000       -1.60000000000000
H           -3.38561700000000        3.38845200000000       -1.31499000000000
H           -3.33719900000000        0.86204400000000       -0.81659000000000
H            1.51554400000000        3.38500000000000        1.14285700000000
H            5.86299200000000        0.87500000000000        1.14285700000000
H           -2.17372400000000        5.51500000000000       -0.68571400000000
H            2.17372400000000        3.00500000000000       -0.68571400000000
H           -2.45951200000000        2.51000000000000        1.60000000000000
H           -4.62729400000000        1.23780400000000        1.77213300000000
H            0.00000000000000        2.51000000000000        1.60000000000000
H            0.00000000000000       -2.51000000000000        1.60000000000000
H            3.33719900000000       -0.86204400000000       -0.81659000000000
H            3.38561700000000       -3.38845200000000       -1.31499000000000
H           -1.24167700000000       -8.88625700000000       -0.40070400000000
H            0.93802600000000       -7.62780400000000       -0.05643900000000
H           -5.85705000000000       -7.62780400000000        0.05643900000000
H           -3.67734700000000       -8.88625700000000        0.40070400000000
H           -7.07488500000000       -3.00154800000000        0.51358200000000
H           -7.07488500000000       -5.51845200000000        0.85784700000000
H           -2.17372400000000       -3.00500000000000       -0.68571400000000
H            2.17372400000000       -5.51500000000000       -0.68571400000000
H           -5.86299200000000       -0.87500000000000        1.14285700000000
H           -1.51554400000000       -3.38500000000000        1.14285700000000
96
 energy: -153.369518113305 gnorm: 0.173970055150 xtb: 6.5.0 (homebrew)
C            2.45936926551385        7.07849076423388        0.00288871808871
C            1.22625199495170        7.78097435070513       -0.22775759064085
C            0.02238490017034        7.09136073295469       -0.22656463788545
C            0.00022596311921        5.67015110558453       -0.43334414311713
C            1.23651137247096        4.96095575833755       -0.44053398364714
C            2.46261942901278        5.65739424949363       -0.00101970606671
C            4.89147946507711        7.08713240190310        0.22617845594391
C            3.68851674419661        7.78202349082256        0.23106542146095
C            3.67085353466403        4.96013094923694        0.45848290311927
C            4.90155135604286        5.67070994407626        0.45482051007900
C            6.12666116841902        4.95289563443339        0.68447363752448
C            3.68780750531220        3.55127873548387        0.90347970585827
C            4.91767625304638        2.83527639416319        0.89415256667377
C            6.13462356930171        3.56477820284403        0.68299368410845
C            3.69838006888472        0.72036945685295        1.38317480125571
C            2.46583594879501        1.43648469895788        1.39452114398795
C            1.21416631462674        0.69994379208396       -1.56805241320704
C            1.22475756955971       -0.71366770729062       -1.53819964531763
C            2.47505887104559       -1.39657026279088        1.60976238447079
C            3.67233740536712       -0.70125658727958        1.60889655448957
C            0.00728261734491        1.42191392326184       -1.52796961164425
C           -1.22475756955971        0.71366770729062       -1.53819964531763
C           -1.21416631462674       -0.69994379208396       -1.56805241320704
C           -0.00728261734490       -1.42191392326184       -1.52796961164425
C            0.01547304431160        2.85900888545979       -0.99934783820477
C           -1.22412622947177        3.56154533099543       -0.95503164109292
C           -2.44448753589044        2.82790638348820       -1.15456936143243
C           -2.44241124914095        1.43980840541442       -1.17087448362012
C            2.49615887194877        2.83717336758286        1.20450350933283
C            4.90166628223280        1.43161521124348        1.14324535865355
C           -1.20871091649781        4.95737423658139       -0.68495374731832
C            1.20814148905225        3.56969722636944       -0.76262060017635
C           -1.22838943706866        0.70250568781815        1.60180533545823
C           -2.47505887104559        1.39657026279088        1.60976238447079
C           -3.67233740536712        0.70125658727958        1.60889655448957
C           -3.69838006888472       -0.72036945685295        1.38317480125571
C           -2.46583594879501       -1.43648469895788        1.39452114398795
C           -1.22315167161398       -0.72140491179905        1.59427740665953
C            1.22315167161399        0.72140491179905        1.59427740665953
C           -0.00648530560266        1.40169622907536        1.60029477717748
C            0.00648530560266       -1.40169622907536        1.60029477717748
C            1.22838943706866       -0.70250568781815        1.60180533545823
C            2.44241124914095       -1.43980840541442       -1.17087448362012
C           -0.01547304431160       -2.85900888545980       -0.99934783820477
C            1.22412622947177       -3.56154533099543       -0.95503164109292
C            2.44448753589044       -2.82790638348820       -1.15456936143242
C           -0.00022596311921       -5.67015110558453       -0.43334414311713
C           -1.23651137247096       -4.96095575833756       -0.44053398364714
C           -2.46261942901278       -5.65739424949363       -0.00101970606671
C           -2.45936926551385       -7.07849076423388        0.00288871808871
C           -1.22625199495170       -7.78097435070513       -0.22775759064085
C           -0.02238490017034       -7.09136073295469       -0.22656463788545
C           -3.67085353466403       -4.96013094923695        0.45848290311927
C           -4.90155135604286       -5.67070994407626        0.45482051007900
C           -4.89147946507712       -7.08713240190311        0.22617845594391
C           -3.68851674419661       -7.78202349082255        0.23106542146095
C           -3.68780750531219       -3.55127873548387        0.90347970585827
C           -4.91767625304638       -2.83527639416319        0.89415256667377
C           -6.13462356930171       -3.56477820284403        0.68299368410845
C           -6.12666116841902       -4.95289563443338        0.68447363752448
C           -1.20814148905225       -3.56969722636944       -0.76262060017635
C            1.20871091649781       -4.95737423658139       -0.68495374731832
C           -4.90166628223280       -1.43161521124348        1.14324535865355
C           -2.49615887194878       -2.83717336758286        1.20450350933283
H            1.23902438648124        8.86265311675638       -0.37190023923344
H           -0.91827917595467        7.62314269989908       -0.08408761013457
H            5.83419550462578        7.61856576531845        0.08372742450850
H            3.67845819186213        8.86363548601068        0.37345263032161
H            7.05599235235559        5.50553027191214        0.82946982369941
H            7.06404576048964        3.01628481624203        0.54049566433162
H            2.15886722345866        1.23762600679814       -1.61778971192148
H            2.46758178293501       -2.48597699987253        1.59081949166047
H            4.61108066386978       -1.23171861353593        1.75495070415437
H           -2.15886722345866       -1.23762600679814       -1.61778971192148
H           -3.37795334076146        3.37656778577322       -1.27529394067910
H           -3.32660166336199        0.87684596553624       -0.87182422199967
H            1.55491478967379        3.37456128424195        1.16493407638816
H            5.84423878686059        0.88679633611021        1.14304594420551
H           -2.15220321717594        5.50279678906558       -0.68393800605954
H            2.14418082824233        3.02322693508111       -0.70548567417530
H           -2.46758178293502        2.48597699987253        1.59081949166047
H           -4.61108066386978        1.23171861353593        1.75495070415437
H           -0.01534186343151        2.48610594233912        1.61037217396213
H            0.01534186343151       -2.48610594233912        1.61037217396212
H            3.32660166336199       -0.87684596553624       -0.87182422199967
H            3.37795334076146       -3.37656778577322       -1.27529394067910
H           -1.23902438648124       -8.86265311675638       -0.37190023923344
H            0.91827917595467       -7.62314269989908       -0.08408761013457
H           -5.83419550462578       -7.61856576531845        0.08372742450850
H           -3.67845819186213       -8.86363548601068        0.37345263032161
H           -7.06404576048964       -3.01628481624203        0.54049566433162
H           -7.05599235235559       -5.50553027191214        0.82946982369941
H           -2.14418082824233       -3.02322693508111       -0.70548567417530
H            2.15220321717594       -5.50279678906558       -0.68393800605954
H           -5.84423878686059       -0.88679633611021        1.14304594420550
H           -1.55491478967379       -3.37456128424195        1.16493407638816
96
 energy: -153.443691821049 gnorm: 0.084287472682 xtb: 6.5.0 (homebrew)
C            2.46087113115154        7.05107896204411       -0.00614922481712
C            1.21912666774206        7.74859333414348       -0.20473894180679
C            0.04018794112282        7.08150444280299       -0.24329383476280
C           -0.00167835217351        5.65861437922731       -0.43296922098679
C            1.23560168317022        4.94301740539177       -0.40971543923763
C            2.45724188204738        5.62827115389112        0.01056326937763
C            4.86780424880796        7.07261747227251        0.25643425673779
C            3.68955006181072        7.75117677034290        0.20005826457610
C            3.64924088102398        4.94627864171683        0.45029765824657
C            4.87870540931257        5.65943285112004        0.46239982684711
C            6.10337873537355        4.93199699975457        0.66156039121340
C            3.67491680264656        3.54909951806176        0.87614767728275
C            4.90959042295423        2.83036100508037        0.89103322464078
C            6.11779332249037        3.57767192788799        0.69950474884840
C            3.71013234968500        0.73232452601541        1.39186949636372
C            2.47577019559278        1.45517949544864        1.41150194218249
C            1.20244044003587        0.68633558880479       -1.59235919230013
C            1.21032219908192       -0.72214346846234       -1.46998034751354
C            2.49253871567008       -1.37223673545009        1.61993550064740
C            3.65824730064897       -0.69495609442647        1.60025302433594
C            0.02687105484066        1.43457559709374       -1.45568981038171
C           -1.21032219908192        0.72214346846233       -1.46998034751354
C           -1.20244044003587       -0.68633558880479       -1.59235919230013
C           -0.02687105484066       -1.43457559709374       -1.45568981038171
C            0.03362772279275        2.86648724678976       -1.07536674209518
C           -1.21270287165293        3.57072654077547       -0.98140902133800
C           -2.42661031866779        2.81301771115348       -1.14818612890894
C           -2.42058175104677        1.45888329519649       -1.20808040644751
C            2.52207626027728        2.82727412372135        1.22356942345424
C            4.88538978554923        1.44367976927140        1.14621104679604
C           -1.18936376205017        4.94164131427007       -0.68885300634852
C            1.18617475967617        3.57853047369105       -0.79058992486319
C           -1.22652421445615        0.69397926523508        1.60093528270534
C           -2.49253871567008        1.37223673545009        1.61993550064740
C           -3.65824730064897        0.69495609442647        1.60025302433594
C           -3.71013234968500       -0.73232452601541        1.39186949636372
C           -2.47577019559278       -1.45517949544864        1.41150194218249
C           -1.21653528159984       -0.73331522681057        1.56732183964625
C            1.21653528159984        0.73331522681057        1.56732183964625
C           -0.01304103798195        1.38225073851681        1.61221643356985
C            0.01304103798195       -1.38225073851682        1.61221643356985
C            1.22652421445615       -0.69397926523509        1.60093528270534
C            2.42058175104677       -1.45888329519649       -1.20808040644751
C           -0.03362772279275       -2.86648724678976       -1.07536674209518
C            1.21270287165293       -3.57072654077547       -0.98140902133800
C            2.42661031866779       -2.81301771115348       -1.14818612890894
C            0.00167835217351       -5.65861437922731       -0.43296922098679
C           -1.23560168317021       -4.94301740539176       -0.40971543923763
C           -2.45724188204738       -5.62827115389112        0.01056326937763
C           -2.46087113115154       -7.05107896204411       -0.00614922481712
C           -1.21912666774207       -7.74859333414348       -0.20473894180679
C           -0.04018794112282       -7.08150444280299       -0.24329383476280
C           -3.64924088102398       -4.94627864171683        0.45029765824657
C           -4.87870540931257       -5.65943285112004        0.46239982684711
C           -4.86780424880796       -7.07261747227251        0.25643425673779
C           -3.68955006181072       -7.75117677034289        0.20005826457610
C           -3.67491680264655       -3.54909951806176        0.87614767728275
C           -4.90959042295424       -2.83036100508036        0.89103322464078
C           -6.11779332249037       -3.57767192788799        0.69950474884840
C           -6.10337873537355       -4.93199699975457        0.66156039121340
C           -1.18617475967617       -3.57853047369106       -0.79058992486319
C            1.18936376205017       -4.94164131427008       -0.68885300634852
C           -4.88538978554924       -1.44367976927140        1.14621104679604
C           -2.52207626027728       -2.82727412372135        1.22356942345424
H            1.24009805999901        8.83285047325156       -0.33362483653459
H           -0.90176695099624        7.61477153738522       -0.12331434655458
H            5.81362276754103        7.60107499218000        0.12384660552415
H            3.67457755626520        8.83439565936101        0.33300521565408
H            7.03132432529386        5.49211784291197        0.79081982606229
H            7.04906883734654        3.02773555980125        0.57953756408517
H            2.14919574887526        1.21328969362879       -1.59556864997969
H            2.47386207133700       -2.46047170841753        1.63266566015333
H            4.59775670068052       -1.22407150852339        1.73258123826423
H           -2.14919574887526       -1.21328969362879       -1.59556864997969
H           -3.36453762825612        3.36423971997197       -1.22373594304840
H           -3.31556633409094        0.89044976576493       -0.94797135008088
H            1.58956021831122        3.36743423683295        1.24232697922959
H            5.82766863561274        0.90011488693152        1.14464145387631
H           -2.13159860106433        5.48860820836030       -0.68280133355831
H            2.12301639288039        3.04600833618283       -0.79632626493217
H           -2.47386207133699        2.46047170841753        1.63266566015333
H           -4.59775670068052        1.22407150852339        1.73258123826423
H           -0.03284186143514        2.46332289988189        1.61861211617550
H            0.03284186143514       -2.46332289988190        1.61861211617550
H            3.31556633409094       -0.89044976576493       -0.94797135008088
H            3.36453762825612       -3.36423971997196       -1.22373594304840
H           -1.24009805999901       -8.83285047325156       -0.33362483653459
H            0.90176695099624       -7.61477153738523       -0.12331434655458
H           -5.81362276754102       -7.60107499218001        0.12384660552415
H           -3.67457755626520       -8.83439565936101        0.33300521565408
H           -7.04906883734654       -3.02773555980125        0.57953756408517
H           -7.03132432529386       -5.49211784291197        0.79081982606229
H           -2.12301639288038       -3.04600833618283       -0.79632626493217
H            2.13159860106433       -5.48860820836030       -0.68280133355831
H           -5.82766863561274       -0.90011488693152        1.14464145387632
H           -1.58956021831123       -3.36743423683295        1.24232697922959
96
 energy: -153.480924842197 gnorm: 0.053135919701 xtb: 6.5.0 (homebrew)
C            2.45375107916151        7.02231547790880       -0.00305814357966
C            1.22038519568535        7.72337372015438       -0.19151657418045
C            0.03747841483817        7.06160049541943       -0.24644619262695
C           -0.00056910941587        5.64252048839777       -0.43103224343891
C            1.23248956526626        4.93020906970408       -0.41625724964727
C            2.44716536220168        5.60423813763890        0.01662029072911
C            4.85485439581646        7.04762554145234        0.26880136791483
C            3.67364972584394        7.72509500005197        0.18668589123996
C            3.63751453727902        4.92753603096018        0.44468432012035
C            4.86059014106312        5.64138517167918        0.46042290093522
C            6.08496559193412        4.92408187083792        0.64844589288702
C            3.66961600506086        3.53993307067863        0.87032206542878
C            4.90080631465655        2.82460787898898        0.88331419967158
C            6.10778481163041        3.56889341308476        0.70374469506649
C            3.70747153615882        0.74081981260879        1.39923455390393
C            2.47457491861036        1.46079733641920        1.43152794722292
C            1.20138888328135        0.67346085505468       -1.53478661312220
C            1.19429604611684       -0.72502916966781       -1.43583772819464
C            2.49323142398173       -1.35781330514886        1.63882543915282
C            3.66263599793856       -0.68299487194911        1.60167944222223
C            0.04130634329880        1.43358742713927       -1.43010085002397
C           -1.19429604611684        0.72502916966781       -1.43583772819463
C           -1.20138888328135       -0.67346085505468       -1.53478661312219
C           -0.04130634329880       -1.43358742713927       -1.43010085002397
C            0.04143421357322        2.86991790370612       -1.11573630331448
C           -1.20114570223224        3.57387114434096       -1.01697732773818
C           -2.41635300574256        2.81971314914021       -1.15504055894151
C           -2.41021090703087        1.46636652213025       -1.23639324570496
C            2.52110909008302        2.83067305331515        1.24219616861179
C            4.88079761401038        1.44657273398861        1.15001424268313
C           -1.18181584935701        4.93410535501886       -0.70644826984565
C            1.19421655527540        3.58162524537599       -0.82764344636210
C           -1.22787865451458        0.68123003833083        1.60812653169455
C           -2.49323142398173        1.35781330514886        1.63882543915282
C           -3.66263599793856        0.68299487194911        1.60167944222223
C           -3.70747153615882       -0.74081981260879        1.39923455390393
C           -2.47457491861036       -1.46079733641920        1.43152794722292
C           -1.21540128470309       -0.74087448853477        1.57838231284858
C            1.21540128470310        0.74087448853476        1.57838231284858
C           -0.02074620503426        1.37650994159746        1.61873730851635
C            0.02074620503426       -1.37650994159747        1.61873730851635
C            1.22787865451458       -0.68123003833083        1.60812653169455
C            2.41021090703087       -1.46636652213025       -1.23639324570496
C           -0.04143421357322       -2.86991790370612       -1.11573630331448
C            1.20114570223224       -3.57387114434096       -1.01697732773818
C            2.41635300574256       -2.81971314914021       -1.15504055894151
C            0.00056910941587       -5.64252048839777       -0.43103224343891
C           -1.23248956526626       -4.93020906970408       -0.41625724964727
C           -2.44716536220168       -5.60423813763890        0.01662029072911
C           -2.45375107916151       -7.02231547790880       -0.00305814357966
C           -1.22038519568535       -7.72337372015439       -0.19151657418045
C           -0.03747841483817       -7.06160049541943       -0.24644619262695
C           -3.63751453727902       -4.92753603096018        0.44468432012035
C           -4.86059014106312       -5.64138517167919        0.46042290093522
C           -4.85485439581646       -7.04762554145234        0.26880136791483
C           -3.67364972584394       -7.72509500005197        0.18668589123996
C           -3.66961600506086       -3.53993307067863        0.87032206542878
C           -4.90080631465654       -2.82460787898898        0.88331419967158
C           -6.10778481163041       -3.56889341308476        0.70374469506649
C           -6.08496559193412       -4.92408187083792        0.64844589288702
C           -1.19421655527540       -3.58162524537599       -0.82764344636210
C            1.18181584935701       -4.93410535501886       -0.70644826984565
C           -4.88079761401037       -1.44657273398861        1.15001424268313
C           -2.52110909008302       -2.83067305331516        1.24219616861179
H            1.24650050089425        8.80919143340280       -0.27728846325009
H           -0.90257116574386        7.60523148650221       -0.17872109192719
H            5.80123985654208        7.58049689805358        0.18501745480412
H            3.65975982520118        8.81130239949247        0.27086015212543
H            7.01127037263467        5.48996128891574        0.73413470511507
H            7.04724598411234        3.02591098472672        0.63410691665303
H            2.15509086724482        1.18472529695279       -1.59392185361378
H            2.47539533049582       -2.44237635387130        1.67154140712457
H            4.60344310169732       -1.21489883678023        1.70034477569099
H           -2.15509086724482       -1.18472529695279       -1.59392185361378
H           -3.36191258463574        3.36652943183879       -1.16068841300610
H           -3.32721625701205        0.89976074718737       -1.05516909414031
H            1.59806814360119        3.38033284395486        1.30469226038798
H            5.82257990843919        0.90763659959690        1.14996678975748
H           -2.12149381072489        5.47826850761687       -0.68107292307653
H            2.13308068392798        3.05803074425573       -0.87165122630434
H           -2.47539533049582        2.44237635387131        1.67154140712457
H           -4.60344310169732        1.21489883678023        1.70034477569099
H           -0.05723433338611        2.45634544233037        1.63248377953095
H            0.05723433338611       -2.45634544233037        1.63248377953095
H            3.32721625701206       -0.89976074718737       -1.05516909414032
H            3.36191258463574       -3.36652943183880       -1.16068841300610
H           -1.24650050089424       -8.80919143340280       -0.27728846325009
H            0.90257116574386       -7.60523148650221       -0.17872109192719
H           -5.80123985654209       -7.58049689805358        0.18501745480412
H           -3.65975982520118       -8.81130239949247        0.27086015212543
H           -7.04724598411233       -3.02591098472672        0.63410691665303
H           -7.01127037263467       -5.48996128891574        0.73413470511507