      -----------------------------------------------------------      
     |                   =====================                   |     
     |                           x T B                           |     
     |                   =====================                   |     
     |                         S. Grimme                         |     
     |          Mulliken Center for Theoretical Chemistry        |     
     |                    University of Bonn                     |     
      -----------------------------------------------------------      

   * xtb version 6.5.0 (homebrew) compiled by 'runner@Mac-1652786652448.local' on 

   xtb is free software: you can redistribute it and/or modify it under
   the terms of the GNU Lesser General Public License as published by
   the Free Software Foundation, either version 3 of the License, or
   (at your option) any later version.
   
   xtb is distributed in the hope that it will be useful,
   but WITHOUT ANY WARRANTY; without even the implied warranty of
   MERCHANTABILITY or FITNESS FOR A PARTICULAR PURPOSE.  See the
   GNU Lesser General Public License for more details.
   
   Cite this work as:
   * C. Bannwarth, E. Caldeweyher, S. Ehlert, A. Hansen, P. Pracht,
     J. Seibert, S. Spicher, S. Grimme, WIREs Comput. Mol. Sci., 2020, 11,
     e01493. DOI: 10.1002/wcms.1493
   
   for GFN2-xTB:
   * C. Bannwarth, S. Ehlert and S. Grimme., J. Chem. Theory Comput., 2019,
     15, 1652-1671. DOI: 10.1021/acs.jctc.8b01176
   for GFN1-xTB:
   * S. Grimme, C. Bannwarth, P. Shushkov, J. Chem. Theory Comput., 2017,
     13, 1989-2009. DOI: 10.1021/acs.jctc.7b00118
   for GFN0-xTB:
   * P. Pracht, E. Caldeweyher, S. Ehlert, S. Grimme, ChemRxiv, 2019, preprint.
     DOI: 10.26434/chemrxiv.8326202.v1
   for GFN-FF:
   * S. Spicher and S. Grimme, Angew. Chem. Int. Ed., 2020, 59, 15665-15673.
     DOI: 10.1002/anie.202004239
   
   for ALPB and GBSA implicit solvation:
   * S. Ehlert, M. Stahn, S. Spicher, S. Grimme, J. Chem. Theory Comput.,
     2021, 17, 4250-4261. DOI: 10.1021/acs.jctc.1c00471
   
   for DFT-D4:
   * E. Caldeweyher, C. Bannwarth and S. Grimme, J. Chem. Phys., 2017,
     147, 034112. DOI: 10.1063/1.4993215
   * E. Caldeweyher, S. Ehlert, A. Hansen, H. Neugebauer, S. Spicher,
     C. Bannwarth and S. Grimme, J. Chem. Phys., 2019, 150, 154122.
     DOI: 10.1063/1.5090222
   * E. Caldeweyher, J.-M. Mewes, S. Ehlert and S. Grimme, Phys. Chem. Chem. Phys.
     2020, 22, 8499-8512. DOI: 10.1039/D0CP00502A
   
   for sTDA-xTB:
   * S. Grimme and C. Bannwarth, J. Chem. Phys., 2016, 145, 054103.
     DOI: 10.1063/1.4959605
   
   in the mass-spec context:
   * V. Asgeirsson, C. Bauer and S. Grimme, Chem. Sci., 2017, 8, 4879.
     DOI: 10.1039/c7sc00601b
   * J. Koopman and S. Grimme, ACS Omega 2019, 4, 12, 15120-15133.
     DOI: 10.1021/acsomega.9b02011
   
   for metadynamics refer to:
   * S. Grimme, J. Chem. Theory Comput., 2019, 155, 2847-2862
     DOI: 10.1021/acs.jctc.9b00143
   
   for SPH calculations refer to:
   * S. Spicher and S. Grimme, J. Chem. Theory Comput., 2021, 17, 1701-1714
     DOI: 10.1021/acs.jctc.0c01306
   
   with help from (in alphabetical order)
   P. Atkinson, C. Bannwarth, F. Bohle, G. Brandenburg, E. Caldeweyher
   M. Checinski, S. Dohm, S. Ehlert, S. Ehrlich, I. Gerasimov, C. Hölzer
   A. Katbashev, J. Koopman, C. Lavigne, S. Lehtola, F. März, M. Müller,
   F. Musil, H. Neugebauer, J. Pisarek, C. Plett, P. Pracht, F. Pultar,
   J. Seibert, P. Shushkov, S. Spicher, M. Stahn, M. Steiner, T. Strunk,
   J. Stückrath, T. Rose, and J. Unsleber
   
 * started run on 2026/03/17 at 18:30:55.474     

           -------------------------------------------------
          |                Calculation Setup                |
           -------------------------------------------------

          program call               : xtb exp_inf20.xyz --opt
          coordinate file            : exp_inf20.xyz
          omp threads                :                    12

   ID    Z sym.   atoms
    1    6 C      1-80
    2    1 H      81-120

           -------------------------------------------------
          |                 G F N 2 - x T B                 |
           -------------------------------------------------

        Reference                      10.1021/acs.jctc.8b01176
      * Hamiltonian:
        H0-scaling (s, p, d)           1.850000    2.230000    2.230000
        zeta-weighting                 0.500000
      * Dispersion:
        s8                             2.700000
        a1                             0.520000
        a2                             5.000000
        s9                             5.000000
      * Repulsion:
        kExp                           1.500000    1.000000
        rExp                           1.000000
      * Coulomb:
        alpha                          2.000000
        third order                    shell-resolved
        anisotropic                    true
        a3                             3.000000
        a5                             4.000000
        cn-shift                       1.200000
        cn-exp                         4.000000
        max-rad                        5.000000


          ...................................................
          :                      SETUP                      :
          :.................................................:
          :  # basis functions                 360          :
          :  # atomic orbitals                 360          :
          :  # shells                          200          :
          :  # electrons                       360          :
          :  max. iterations                   250          :
          :  Hamiltonian                  GFN2-xTB          :
          :  restarted?                      false          :
          :  GBSA solvation                  false          :
          :  PC potential                    false          :
          :  electronic temp.          300.0000000     K    :
          :  accuracy                    1.0000000          :
          :  -> integral cutoff          0.2500000E+02      :
          :  -> integral neglect         0.1000000E-07      :
          :  -> SCF convergence          0.1000000E-05 Eh   :
          :  -> wf. convergence          0.1000000E-03 e    :
          :  Broyden damping             0.4000000          :
          ...................................................

 iter      E             dE          RMSdq      gap      omega  full diag
   1   -194.7666787 -0.194767E+03  0.460E+00    1.48       0.0  T
   2   -194.8075724 -0.408937E-01  0.273E+00    1.45       1.0  T
   3   -194.7606917  0.468807E-01  0.679E-01    1.45       1.0  T
   4   -194.8079040 -0.472123E-01  0.292E-01    1.44       1.0  T
   5   -194.8146117 -0.670770E-02  0.145E-01    1.45       1.0  T
   6   -194.8170914 -0.247976E-02  0.337E-02    1.45       1.0  T
   7   -194.8171335 -0.420956E-04  0.221E-02    1.45       1.0  T
   8   -194.8171554 -0.218904E-04  0.101E-02    1.45       1.0  T
   9   -194.8171666 -0.111261E-04  0.207E-03    1.45       4.4  T
  10   -194.8171671 -0.499594E-06  0.731E-04    1.45      12.5  T
  11   -194.8171671 -0.384258E-07  0.370E-04    1.45      24.7  T

   *** convergence criteria satisfied after 11 iterations ***

         #    Occupation            Energy/Eh            Energy/eV
      -------------------------------------------------------------
         1        2.0000           -0.6542342             -17.8026
       ...           ...                  ...                  ...
       174        2.0000           -0.3603128              -9.8046
       175        2.0000           -0.3548766              -9.6567
       176        2.0000           -0.3538066              -9.6276
       177        2.0000           -0.3508479              -9.5471
       178        2.0000           -0.3482673              -9.4768
       179        2.0000           -0.3413291              -9.2880
       180        2.0000           -0.3388891              -9.2216 (HOMO)
       181                         -0.2855915              -7.7713 (LUMO)
       182                         -0.2848259              -7.7505
       183                         -0.2792591              -7.5990
       184                         -0.2772364              -7.5440
       185                         -0.2730557              -7.4302
       ...                                ...                  ...
       360                          0.6869231              18.6921
      -------------------------------------------------------------
                  HL-Gap            0.0532976 Eh            1.4503 eV
             Fermi-level           -0.3123704 Eh           -8.5000 eV

 SCC (total)                   0 d,  0 h,  0 min,  0.993 sec
 SCC setup                      ...        0 min,  0.001 sec (  0.087%)
 Dispersion                     ...        0 min,  0.003 sec (  0.349%)
 classical contributions        ...        0 min,  0.000 sec (  0.031%)
 integral evaluation            ...        0 min,  0.009 sec (  0.908%)
 iterations                     ...        0 min,  0.944 sec ( 95.092%)
 molecular gradient             ...        0 min,  0.033 sec (  3.343%)
 printout                       ...        0 min,  0.002 sec (  0.188%)

         :::::::::::::::::::::::::::::::::::::::::::::::::::::
         ::                     SUMMARY                     ::
         :::::::::::::::::::::::::::::::::::::::::::::::::::::
         :: total energy            -191.380052118259 Eh    ::
         :: gradient norm              0.365226908568 Eh/a0 ::
         :: HOMO-LUMO gap              1.450300315039 eV    ::
         ::.................................................::
         :: SCC energy              -194.817167092021 Eh    ::
         :: -> isotropic ES            0.005985538290 Eh    ::
         :: -> anisotropic ES          0.019579061290 Eh    ::
         :: -> anisotropic XC          0.115656720999 Eh    ::
         :: -> dispersion             -0.197635373450 Eh    ::
         :: repulsion energy           3.436557054828 Eh    ::
         :: add. restraining           0.000000000000 Eh    ::
         :: total charge              -0.000000000000 e     ::
         :::::::::::::::::::::::::::::::::::::::::::::::::::::

      ----------------------------------------------------------- 
     |                   =====================                   |
     |                        A N C O P T                        |
     |                   =====================                   |
     |               Approximate Normal Coordinate               |
     |                Rational Function Optimizer                |
      ----------------------------------------------------------- 

          ...................................................
          :                      SETUP                      :
          :.................................................:
          :   optimization level            normal          :
          :   max. optcycles                   360          :
          :   ANC micro-cycles                  20          :
          :   degrees of freedom               354          :
          :.................................................:
          :   RF solver                   davidson          :
          :   write xtbopt.log                true          :
          :   linear?                        false          :
          :   energy convergence         0.5000000E-05 Eh   :
          :   grad. convergence          0.1000000E-02 Eh/α :
          :   maximium RF displ.         1.0000000          :
          :   Hlow (freq-cutoff)         0.1000000E-01      :
          :   Hmax (freq-cutoff)         5.0000000          :
          :   S6 in model hess.         20.0000000          :
          ...................................................

generating ANC from model Hessian ...
Using Lindh-Hessian (1995)
 Shifting diagonal of input Hessian by    9.8774090083334695E-003
 Lowest  eigenvalues of input Hessian
    0.000000    0.000000    0.000000    0.000000    0.000000    0.000000
    0.010000    0.010044    0.010119    0.010223    0.010390    0.010438
    0.010551    0.010631    0.011108    0.011223    0.011489    0.011578
 Highest eigenvalues
    1.981067    1.996192    2.001918    2.009146    2.031293    2.035602


........................................................................
.............................. CYCLE    1 ..............................
........................................................................
   1   -194.8171671 -0.194817E+03  0.192E-04    1.45       0.0  T
   2   -194.8171671  0.218003E-08  0.211E-04    1.45      43.2  T
   3   -194.8171671 -0.514581E-08  0.625E-05    1.45     146.1  T
     SCC iter.                  ...        0 min,  0.266 sec
     gradient                   ...        0 min,  0.036 sec
 * total energy  :  -191.3800521 Eh     change       -0.1173274E-07 Eh
   gradient norm :     0.3652275 Eh/α   predicted     0.0000000E+00 (-100.00%)
   displ. norm   :     0.6211929 α      lambda       -0.1645269E+00
   maximum displ.:     0.1567720 α      in ANC's #177, #176, #184, ...

........................................................................
.............................. CYCLE    2 ..............................
........................................................................
   1   -195.1112757 -0.195111E+03  0.320E-01    1.65       0.0  T
   2   -195.1114833 -0.207510E-03  0.198E-01    1.65       1.0  T
   3   -195.1102052  0.127805E-02  0.112E-01    1.66       1.0  T
   4   -195.1116855 -0.148027E-02  0.221E-02    1.66       1.0  T
   5   -195.1117495 -0.640037E-04  0.449E-03    1.66       2.0  T
   6   -195.1117505 -0.106307E-05  0.251E-03    1.65       3.6  T
   7   -195.1117506 -0.109000E-06  0.107E-03    1.65       8.5  T
   8   -195.1117508 -0.124632E-06  0.349E-04    1.65      26.1  T
   9   -195.1117508 -0.723193E-08  0.163E-04    1.65      56.0  T
     SCC iter.                  ...        0 min,  0.772 sec
     gradient                   ...        0 min,  0.034 sec
 * total energy  :  -191.5095755 Eh     change       -0.1295234E+00 Eh
   gradient norm :     0.1863782 Eh/α   predicted    -0.1140932E+00 ( -11.91%)
   displ. norm   :     0.6598572 α      lambda       -0.9050694E-01
   maximum displ.:     0.1910046 α      in ANC's #41, #50, #82, ...

........................................................................
.............................. CYCLE    3 ..............................
........................................................................
   1   -195.3325898 -0.195333E+03  0.309E-01    1.84       0.0  T
   2   -195.3327673 -0.177493E-03  0.187E-01    1.84       1.0  T
   3   -195.3319507  0.816618E-03  0.872E-02    1.84       1.0  T
   4   -195.3328974 -0.946652E-03  0.147E-02    1.84       1.0  T
   5   -195.3329245 -0.271541E-04  0.336E-03    1.84       2.7  T
   6   -195.3329249 -0.413207E-06  0.198E-03    1.84       4.6  T
   7   -195.3329251 -0.138621E-06  0.649E-04    1.84      14.1  T
   8   -195.3329251 -0.303729E-07  0.305E-04    1.84      29.9  T
     SCC iter.                  ...        0 min,  0.673 sec
     gradient                   ...        0 min,  0.033 sec
 * total energy  :  -191.5734229 Eh     change       -0.6384745E-01 Eh
   gradient norm :     0.0673870 Eh/α   predicted    -0.6495772E-01 (   1.74%)
   displ. norm   :     0.7499504 α      lambda       -0.4149826E-01
   maximum displ.:     0.2911469 α      in ANC's #41, #50, #16, ...

........................................................................
.............................. CYCLE    4 ..............................
........................................................................
   1   -195.3999261 -0.195400E+03  0.270E-01    1.90       0.0  T
   2   -195.3999746 -0.484646E-04  0.161E-01    1.91       1.0  T
   3   -195.3996024  0.372162E-03  0.542E-02    1.90       1.0  T
   4   -195.4000182 -0.415793E-03  0.644E-03    1.90       1.4  T
   5   -195.4000226 -0.441642E-05  0.195E-03    1.90       4.7  T
   6   -195.4000227 -0.910549E-07  0.114E-03    1.90       8.0  T
   7   -195.4000228 -0.368652E-07  0.380E-04    1.90      24.0  T
   8   -195.4000228 -0.143144E-07  0.145E-04    1.90      62.9  T
     SCC iter.                  ...        0 min,  0.674 sec
     gradient                   ...        0 min,  0.034 sec
 * total energy  :  -191.6083173 Eh     change       -0.3489438E-01 Eh
   gradient norm :     0.0526916 Eh/α   predicted    -0.3241901E-01 (  -7.09%)
   displ. norm   :     0.8186926 α      lambda       -0.3177165E-01
   maximum displ.:     0.2939241 α      in ANC's #41, #16, #22, ...

........................................................................
.............................. CYCLE    5 ..............................
........................................................................
   1   -195.4397823 -0.195440E+03  0.263E-01    1.93       0.0  T
   2   -195.4398167 -0.343837E-04  0.156E-01    1.93       1.0  T
   3   -195.4395762  0.240536E-03  0.436E-02    1.93       1.0  T
   4   -195.4398437 -0.267495E-03  0.560E-03    1.93       1.6  T
   5   -195.4398469 -0.324511E-05  0.163E-03    1.93       5.6  T
   6   -195.4398470 -0.647124E-07  0.900E-04    1.93      10.1  T
   7   -195.4398470 -0.236542E-07  0.317E-04    1.93      28.8  T
     SCC iter.                  ...        0 min,  0.603 sec
     gradient                   ...        0 min,  0.032 sec
 * total energy  :  -191.6356465 Eh     change       -0.2732914E-01 Eh
   gradient norm :     0.0360429 Eh/α   predicted    -0.2653366E-01 (  -2.91%)
   displ. norm   :     0.8364061 α      lambda       -0.2400221E-01
   maximum displ.:     0.3057556 α      in ANC's #16, #22, #41, ...

........................................................................
.............................. CYCLE    6 ..............................
........................................................................
   1   -195.4620759 -0.195462E+03  0.242E-01    1.93       0.0  T
   2   -195.4620942 -0.182927E-04  0.143E-01    1.93       1.0  T
   3   -195.4619350  0.159222E-03  0.357E-02    1.93       1.0  T
   4   -195.4621109 -0.175869E-03  0.425E-03    1.93       2.2  T
   5   -195.4621126 -0.170251E-05  0.136E-03    1.93       6.7  T
   6   -195.4621126 -0.317979E-07  0.759E-04    1.93      12.0  T
   7   -195.4621126 -0.177562E-07  0.282E-04    1.93      32.3  T
     SCC iter.                  ...        0 min,  0.604 sec
     gradient                   ...        0 min,  0.034 sec
 * total energy  :  -191.6566008 Eh     change       -0.2095438E-01 Eh
   gradient norm :     0.0296229 Eh/α   predicted    -0.2039681E-01 (  -2.66%)
   displ. norm   :     0.8449350 α      lambda       -0.1886875E-01
   maximum displ.:     0.3509415 α      in ANC's #16, #22, #26, ...

........................................................................
.............................. CYCLE    7 ..............................
........................................................................
   1   -195.4757411 -0.195476E+03  0.222E-01    1.93       0.0  T
   2   -195.4757519 -0.107509E-04  0.131E-01    1.93       1.0  T
   3   -195.4756312  0.120723E-03  0.310E-02    1.93       1.0  T
   4   -195.4757641 -0.132933E-03  0.311E-03    1.93       2.9  T
   5   -195.4757649 -0.826080E-06  0.125E-03    1.93       7.3  T
   6   -195.4757650 -0.241412E-07  0.680E-04    1.93      13.4  T
   7   -195.4757650 -0.180741E-07  0.226E-04    1.93      40.4  T
     SCC iter.                  ...        0 min,  0.580 sec
     gradient                   ...        0 min,  0.033 sec
 * total energy  :  -191.6733177 Eh     change       -0.1671686E-01 Eh
   gradient norm :     0.0283873 Eh/α   predicted    -0.1616973E-01 (  -3.27%)
   displ. norm   :     0.8540209 α      lambda       -0.1552914E-01
   maximum displ.:     0.3863905 α      in ANC's #16, #22, #6, ...

........................................................................
.............................. CYCLE    8 ..............................
........................................................................
   1   -195.4831714 -0.195483E+03  0.205E-01    1.93       0.0  T
   2   -195.4831796 -0.817737E-05  0.121E-01    1.93       1.0  T
   3   -195.4830784  0.101175E-03  0.279E-02    1.93       1.0  T
   4   -195.4831897 -0.111303E-03  0.282E-03    1.93       3.2  T
   5   -195.4831904 -0.659613E-06  0.116E-03    1.93       7.9  T
   6   -195.4831904 -0.182340E-07  0.621E-04    1.93      14.7  T
   7   -195.4831904 -0.157739E-07  0.181E-04    1.93      50.5  T
     SCC iter.                  ...        0 min,  0.592 sec
     gradient                   ...        0 min,  0.033 sec
 * total energy  :  -191.6872290 Eh     change       -0.1391134E-01 Eh
   gradient norm :     0.0246403 Eh/α   predicted    -0.1342769E-01 (  -3.48%)
   displ. norm   :     0.8673055 α      lambda       -0.1310723E-01
   maximum displ.:     0.4125085 α      in ANC's #16, #22, #6, ...

........................................................................
.............................. CYCLE    9 ..............................
........................................................................
   1   -195.4894816 -0.195489E+03  0.191E-01    1.93       0.0  T
   2   -195.4894884 -0.676445E-05  0.112E-01    1.93       1.0  T
   3   -195.4894017  0.866773E-04  0.252E-02    1.94       1.0  T
   4   -195.4894972 -0.954221E-04  0.275E-03    1.93       3.3  T
   5   -195.4894978 -0.636586E-06  0.113E-03    1.93       8.0  T
   6   -195.4894978 -0.110336E-07  0.542E-04    1.93      16.8  T
   7   -195.4894978 -0.153941E-07  0.148E-04    1.93      61.5  T
     SCC iter.                  ...        0 min,  0.590 sec
     gradient                   ...        0 min,  0.034 sec
 * total energy  :  -191.6990762 Eh     change       -0.1184714E-01 Eh
   gradient norm :     0.0197352 Eh/α   predicted    -0.1148338E-01 (  -3.07%)
   displ. norm   :     0.8796220 α      lambda       -0.1123741E-01
   maximum displ.:     0.4246752 α      in ANC's #16, #6, #22, ...

........................................................................
.............................. CYCLE   10 ..............................
........................................................................
   1   -195.4944019 -0.195494E+03  0.178E-01    1.94       0.0  T
   2   -195.4944080 -0.610171E-05  0.104E-01    1.94       1.0  T
   3   -195.4943308  0.771990E-04  0.235E-02    1.94       1.0  T
   4   -195.4944158 -0.849735E-04  0.276E-03    1.94       3.3  T
   5   -195.4944164 -0.657727E-06  0.104E-03    1.94       8.8  T
   6   -195.4944164 -0.644854E-08  0.495E-04    1.94      18.4  T
   7   -195.4944164 -0.132089E-07  0.142E-04    1.94      64.5  T
     SCC iter.                  ...        0 min,  0.595 sec
     gradient                   ...        0 min,  0.032 sec
 * total energy  :  -191.7093014 Eh     change       -0.1022526E-01 Eh
   gradient norm :     0.0158549 Eh/α   predicted    -0.9966114E-02 (  -2.53%)
   displ. norm   :     0.8954002 α      lambda       -0.9912501E-02
   maximum displ.:     0.4224092 α      in ANC's #16, #6, #22, ...

........................................................................
.............................. CYCLE   11 ..............................
........................................................................
   1   -195.4990091 -0.195499E+03  0.169E-01    1.95       0.0  T
   2   -195.4990155 -0.631469E-05  0.992E-02    1.95       1.0  T
   3   -195.4989315  0.840135E-04  0.241E-02    1.95       1.0  T
   4   -195.4990239 -0.924537E-04  0.272E-03    1.95       3.4  T
   5   -195.4990245 -0.589188E-06  0.122E-03    1.95       7.5  T
   6   -195.4990245 -0.140895E-07  0.541E-04    1.95      16.9  T
   7   -195.4990245 -0.200273E-07  0.162E-04    1.95      56.2  T
     SCC iter.                  ...        0 min,  0.603 sec
     gradient                   ...        0 min,  0.033 sec
 * total energy  :  -191.7181589 Eh     change       -0.8857484E-02 Eh
   gradient norm :     0.0193889 Eh/α   predicted    -0.8929881E-02 (   0.82%)
   displ. norm   :     0.8996267 α      lambda       -0.9379209E-02
   maximum displ.:     0.4176415 α      in ANC's #16, #6, #5, ...

........................................................................
.............................. CYCLE   12 ..............................
........................................................................
   1   -195.5055834 -0.195506E+03  0.164E-01    1.96       0.0  T
   2   -195.5055912 -0.776367E-05  0.965E-02    1.96       1.0  T
   3   -195.5055116  0.795272E-04  0.248E-02    1.96       1.0  T
   4   -195.5055995 -0.878869E-04  0.322E-03    1.96       2.8  T
   5   -195.5056002 -0.683593E-06  0.147E-03    1.96       6.2  T
   6   -195.5056003 -0.451363E-07  0.634E-04    1.96      14.4  T
   7   -195.5056003 -0.265478E-07  0.207E-04    1.96      44.2  T
     SCC iter.                  ...        0 min,  0.588 sec
     gradient                   ...        0 min,  0.033 sec
 * total energy  :  -191.7259830 Eh     change       -0.7824086E-02 Eh
   gradient norm :     0.0246436 Eh/α   predicted    -0.8485053E-02 (   8.45%)
   displ. norm   :     0.8680402 α      lambda       -0.7998852E-02
   maximum displ.:     0.3851969 α      in ANC's #6, #16, #5, ...

........................................................................
.............................. CYCLE   13 ..............................
........................................................................
   1   -195.5081655 -0.195508E+03  0.145E-01    1.97       0.0  T
   2   -195.5081711 -0.554793E-05  0.853E-02    1.97       1.0  T
   3   -195.5080856  0.854368E-04  0.248E-02    1.97       1.0  T
   4   -195.5081794 -0.937734E-04  0.247E-03    1.97       3.7  T
   5   -195.5081799 -0.482423E-06  0.110E-03    1.97       8.3  T
   6   -195.5081799 -0.157704E-07  0.569E-04    1.97      16.0  T
   7   -195.5081799 -0.201716E-07  0.159E-04    1.97      57.5  T
     SCC iter.                  ...        0 min,  0.590 sec
     gradient                   ...        0 min,  0.033 sec
 * total energy  :  -191.7331387 Eh     change       -0.7155660E-02 Eh
   gradient norm :     0.0154844 Eh/α   predicted    -0.7012975E-02 (  -1.99%)
   displ. norm   :     0.8923120 α      lambda       -0.7318686E-02
   maximum displ.:     0.4141078 α      in ANC's #6, #16, #5, ...

........................................................................
.............................. CYCLE   14 ..............................
........................................................................
   1   -195.5168490 -0.195517E+03  0.141E-01    1.97       0.0  T
   2   -195.5168563 -0.729208E-05  0.833E-02    1.97       1.0  T
   3   -195.5167714  0.848718E-04  0.242E-02    1.97       1.0  T
   4   -195.5168647 -0.933134E-04  0.281E-03    1.97       3.2  T
   5   -195.5168655 -0.711115E-06  0.129E-03    1.97       7.1  T
   6   -195.5168655 -0.434570E-07  0.604E-04    1.97      15.1  T
   7   -195.5168655 -0.172059E-07  0.212E-04    1.97      43.1  T
     SCC iter.                  ...        0 min,  0.601 sec
     gradient                   ...        0 min,  0.033 sec
 * total energy  :  -191.7394264 Eh     change       -0.6287736E-02 Eh
   gradient norm :     0.0218116 Eh/α   predicted    -0.6572987E-02 (   4.54%)
   displ. norm   :     0.8756724 α      lambda       -0.6974802E-02
   maximum displ.:     0.4258828 α      in ANC's #6, #16, #5, ...

........................................................................
.............................. CYCLE   15 ..............................
........................................................................
   1   -195.5277156 -0.195528E+03  0.133E-01    1.97       0.0  T
   2   -195.5277206 -0.501658E-05  0.781E-02    1.97       1.0  T
   3   -195.5276587  0.618833E-04  0.216E-02    1.97       1.0  T
   4   -195.5277268 -0.680989E-04  0.248E-03    1.97       3.7  T
   5   -195.5277273 -0.459289E-06  0.120E-03    1.97       7.6  T
   6   -195.5277273 -0.355735E-07  0.541E-04    1.97      16.9  T
   7   -195.5277274 -0.179294E-07  0.152E-04    1.97      60.1  T
     SCC iter.                  ...        0 min,  0.587 sec
     gradient                   ...        0 min,  0.033 sec
 * total energy  :  -191.7454396 Eh     change       -0.6013230E-02 Eh
   gradient norm :     0.0161856 Eh/α   predicted    -0.6161555E-02 (   2.47%)
   displ. norm   :     0.8840348 α      lambda       -0.6225907E-02
   maximum displ.:     0.4382087 α      in ANC's #6, #5, #3, ...

........................................................................
.............................. CYCLE   16 ..............................
........................................................................
   1   -195.5301659 -0.195530E+03  0.129E-01    1.98       0.0  T
   2   -195.5301722 -0.637651E-05  0.760E-02    1.97       1.0  T
   3   -195.5300989  0.733337E-04  0.227E-02    1.98       1.0  T
   4   -195.5301797 -0.808132E-04  0.278E-03    1.97       3.3  T
   5   -195.5301803 -0.564685E-06  0.124E-03    1.97       7.4  T
   6   -195.5301803 -0.277362E-07  0.655E-04    1.97      13.9  T
   7   -195.5301803 -0.263149E-07  0.170E-04    1.97      53.7  T
     SCC iter.                  ...        0 min,  0.608 sec
     gradient                   ...        0 min,  0.036 sec
 * total energy  :  -191.7505870 Eh     change       -0.5147370E-02 Eh
   gradient norm :     0.0227877 Eh/α   predicted    -0.5545783E-02 (   7.74%)
   displ. norm   :     0.8563140 α      lambda       -0.5913864E-02
   maximum displ.:     0.4279642 α      in ANC's #6, #5, #3, ...

........................................................................
.............................. CYCLE   17 ..............................
........................................................................
   1   -195.5338954 -0.195534E+03  0.117E-01    1.98       0.0  T
   2   -195.5339005 -0.515048E-05  0.689E-02    1.98       1.0  T
   3   -195.5338426  0.579656E-04  0.211E-02    1.98       1.0  T
   4   -195.5339062 -0.636440E-04  0.249E-03    1.98       3.7  T
   5   -195.5339068 -0.547620E-06  0.109E-03    1.98       8.4  T
   6   -195.5339068 -0.282115E-07  0.531E-04    1.98      17.2  T
   7   -195.5339068 -0.165056E-07  0.149E-04    1.98      61.4  T
     SCC iter.                  ...        0 min,  0.568 sec
     gradient                   ...        0 min,  0.033 sec
 * total energy  :  -191.7557150 Eh     change       -0.5127999E-02 Eh
   gradient norm :     0.0158699 Eh/α   predicted    -0.5125185E-02 (  -0.05%)
   displ. norm   :     0.8727455 α      lambda       -0.5454146E-02
   maximum displ.:     0.4557918 α      in ANC's #6, #3, #5, ...

........................................................................
.............................. CYCLE   18 ..............................
........................................................................
   1   -195.5463942 -0.195546E+03  0.114E-01    1.99       0.0  T
   2   -195.5463990 -0.479925E-05  0.671E-02    1.99       1.0  T
   3   -195.5463367  0.622810E-04  0.221E-02    1.99       1.0  T
   4   -195.5464051 -0.684240E-04  0.249E-03    1.99       3.7  T
   5   -195.5464057 -0.536301E-06  0.124E-03    1.99       7.4  T
   6   -195.5464057 -0.375377E-07  0.520E-04    1.99      17.6  T
   7   -195.5464057 -0.167076E-07  0.159E-04    1.99      57.5  T
     SCC iter.                  ...        0 min,  0.591 sec
     gradient                   ...        0 min,  0.033 sec
 * total energy  :  -191.7602016 Eh     change       -0.4486616E-02 Eh
   gradient norm :     0.0229858 Eh/α   predicted    -0.4804243E-02 (   7.08%)
   displ. norm   :     0.8629686 α      lambda       -0.5383579E-02
   maximum displ.:     0.4350961 α      in ANC's #6, #3, #2, ...

........................................................................
.............................. CYCLE   19 ..............................
........................................................................
   1   -195.5492136 -0.195549E+03  0.109E-01    1.99       0.0  T
   2   -195.5492189 -0.528363E-05  0.643E-02    1.99       1.0  T
   3   -195.5491710  0.478896E-04  0.181E-02    1.99       1.0  T
   4   -195.5492239 -0.528477E-04  0.280E-03    1.99       3.3  T
   5   -195.5492244 -0.576043E-06  0.110E-03    1.99       8.3  T
   6   -195.5492244 -0.573118E-08  0.585E-04    1.99      15.6  T
   7   -195.5492245 -0.253378E-07  0.149E-04    1.99      61.1  T
     SCC iter.                  ...        0 min,  0.606 sec
     gradient                   ...        0 min,  0.033 sec
 * total energy  :  -191.7647898 Eh     change       -0.4588196E-02 Eh
   gradient norm :     0.0202889 Eh/α   predicted    -0.4696403E-02 (   2.36%)
   displ. norm   :     0.8537133 α      lambda       -0.5327384E-02
   maximum displ.:     0.4249341 α      in ANC's #6, #3, #2, ...

........................................................................
.............................. CYCLE   20 ..............................
........................................................................
   1   -195.5537252 -0.195554E+03  0.108E-01    2.00       0.0  T
   2   -195.5537350 -0.977217E-05  0.633E-02    2.00       1.0  T
   3   -195.5536880  0.469930E-04  0.201E-02    2.00       1.0  T
   4   -195.5537410 -0.530303E-04  0.295E-03    2.00       3.1  T
   5   -195.5537418 -0.725681E-06  0.137E-03    2.00       6.6  T
   6   -195.5537419 -0.932542E-07  0.664E-04    2.00      13.8  T
   7   -195.5537419 -0.199758E-07  0.189E-04    2.00      48.3  T
     SCC iter.                  ...        0 min,  0.597 sec
     gradient                   ...        0 min,  0.032 sec
 * total energy  :  -191.7686326 Eh     change       -0.3842809E-02 Eh
   gradient norm :     0.0301920 Eh/α   predicted    -0.4605055E-02 (  19.84%)
   displ. norm   :     0.8097373 α      lambda       -0.5046185E-02
   maximum displ.:     0.4019442 α      in ANC's #6, #3, #2, ...
 * RMSD in coord.:     1.2620966 α      energy gain  -0.3885805E+00 Eh

generating ANC from model Hessian ...
Using Lindh-Hessian (1995)
 Shifting diagonal of input Hessian by    9.8767717061254093E-003
 Lowest  eigenvalues of input Hessian
    0.000000    0.000000    0.000000    0.000000    0.000000    0.000000
    0.010000    0.010062    0.010119    0.010234    0.010443    0.010449
    0.010650    0.010894    0.011160    0.011378    0.011568    0.011779
 Highest eigenvalues
    2.108331    2.127878    2.137266    2.145774    2.165246    2.167298


........................................................................
.............................. CYCLE   21 ..............................
........................................................................
   1   -195.5463381 -0.195546E+03  0.103E-01    2.00       0.0  T
   2   -195.5463428 -0.462238E-05  0.604E-02    2.00       1.0  T
   3   -195.5462924  0.503494E-04  0.194E-02    2.01       1.0  T
   4   -195.5463480 -0.556081E-04  0.236E-03    2.00       3.9  T
   5   -195.5463484 -0.396649E-06  0.112E-03    2.00       8.2  T
   6   -195.5463484 -0.205803E-07  0.586E-04    2.00      15.6  T
   7   -195.5463485 -0.225964E-07  0.151E-04    2.00      60.4  T
     SCC iter.                  ...        0 min,  0.588 sec
     gradient                   ...        0 min,  0.033 sec
 * total energy  :  -191.7728625 Eh     change       -0.4229907E-02 Eh
   gradient norm :     0.0172895 Eh/α   predicted     0.0000000E+00 (-100.00%)
   displ. norm   :     0.3961523 α      lambda       -0.2551308E-02
   maximum displ.:     0.1968302 α      in ANC's #6, #3, #1, ...

........................................................................
.............................. CYCLE   22 ..............................
........................................................................
   1   -195.5550074 -0.195555E+03  0.610E-02    2.00       0.0  T
   2   -195.5550092 -0.181933E-05  0.362E-02    2.00       1.0  T
   3   -195.5549969  0.123083E-04  0.944E-03    2.00       1.0  T
   4   -195.5550105 -0.135809E-04  0.150E-03    2.00       6.1  T
   5   -195.5550107 -0.219396E-06  0.567E-04    2.00      16.1  T
   6   -195.5550107 -0.314876E-08  0.292E-04    2.00      31.3  T
     SCC iter.                  ...        0 min,  0.503 sec
     gradient                   ...        0 min,  0.032 sec
 * total energy  :  -191.7751794 Eh     change       -0.2316919E-02 Eh
   gradient norm :     0.0073048 Eh/α   predicted    -0.1475858E-02 ( -36.30%)
   displ. norm   :     0.7693624 α      lambda       -0.4008198E-02
   maximum displ.:     0.3763440 α      in ANC's #6, #3, #1, ...

........................................................................
.............................. CYCLE   23 ..............................
........................................................................
   1   -195.5641425 -0.195564E+03  0.109E-01    2.00       0.0  T
   2   -195.5641462 -0.375160E-05  0.642E-02    2.00       1.0  T
   3   -195.5641130  0.332149E-04  0.153E-02    2.01       1.0  T
   4   -195.5641496 -0.365931E-04  0.208E-03    2.00       4.4  T
   5   -195.5641500 -0.415034E-06  0.793E-04    2.00      11.5  T
   6   -195.5641500 -0.330371E-08  0.418E-04    2.00      21.8  T
     SCC iter.                  ...        0 min,  0.501 sec
     gradient                   ...        0 min,  0.032 sec
 * total energy  :  -191.7788512 Eh     change       -0.3671785E-02 Eh
   gradient norm :     0.0109088 Eh/α   predicted    -0.3190363E-02 ( -13.11%)
   displ. norm   :     0.8655300 α      lambda       -0.4006547E-02
   maximum displ.:     0.4219312 α      in ANC's #6, #3, #1, ...

........................................................................
.............................. CYCLE   24 ..............................
........................................................................
   1   -195.5684204 -0.195568E+03  0.114E-01    2.01       0.0  T
   2   -195.5684232 -0.279684E-05  0.671E-02    2.01       1.0  T
   3   -195.5683925  0.306911E-04  0.143E-02    2.01       1.0  T
   4   -195.5684264 -0.338567E-04  0.168E-03    2.01       5.4  T
   5   -195.5684266 -0.233802E-06  0.718E-04    2.01      12.7  T
   6   -195.5684266 -0.443237E-09  0.374E-04    2.01      24.4  T
     SCC iter.                  ...        0 min,  0.516 sec
     gradient                   ...        0 min,  0.033 sec
 * total energy  :  -191.7826894 Eh     change       -0.3838216E-02 Eh
   gradient norm :     0.0161734 Eh/α   predicted    -0.3504031E-02 (  -8.71%)
   displ. norm   :     0.8984243 α      lambda       -0.4126286E-02
   maximum displ.:     0.4388476 α      in ANC's #6, #3, #1, ...

........................................................................
.............................. CYCLE   25 ..............................
........................................................................
   1   -195.5709073 -0.195571E+03  0.111E-01    2.01       0.0  T
   2   -195.5709098 -0.250055E-05  0.652E-02    2.01       1.0  T
   3   -195.5708847  0.250792E-04  0.127E-02    2.01       1.0  T
   4   -195.5709125 -0.277854E-04  0.153E-03    2.01       6.0  T
   5   -195.5709127 -0.172523E-06  0.697E-04    2.01      13.1  T
   6   -195.5709127 -0.286880E-08  0.346E-04    2.01      26.4  T
     SCC iter.                  ...        0 min,  0.492 sec
     gradient                   ...        0 min,  0.033 sec
 * total energy  :  -191.7866799 Eh     change       -0.3990412E-02 Eh
   gradient norm :     0.0140921 Eh/α   predicted    -0.3728466E-02 (  -6.56%)
   displ. norm   :     0.9215707 α      lambda       -0.4167091E-02
   maximum displ.:     0.4587815 α      in ANC's #3, #1, #6, ...

........................................................................
.............................. CYCLE   26 ..............................
........................................................................
   1   -195.5739231 -0.195574E+03  0.107E-01    2.01       0.0  T
   2   -195.5739258 -0.270039E-05  0.628E-02    2.01       1.0  T
   3   -195.5739052  0.205861E-04  0.116E-02    2.01       1.0  T
   4   -195.5739281 -0.229449E-04  0.163E-03    2.01       5.6  T
   5   -195.5739283 -0.199788E-06  0.734E-04    2.01      12.4  T
   6   -195.5739283 -0.608878E-08  0.349E-04    2.01      26.2  T
     SCC iter.                  ...        0 min,  0.509 sec
     gradient                   ...        0 min,  0.033 sec
 * total energy  :  -191.7906712 Eh     change       -0.3991352E-02 Eh
   gradient norm :     0.0080287 Eh/α   predicted    -0.3853088E-02 (  -3.46%)
   displ. norm   :     0.9399572 α      lambda       -0.3966613E-02
   maximum displ.:     0.4789073 α      in ANC's #1, #3, #6, ...

........................................................................
.............................. CYCLE   27 ..............................
........................................................................
   1   -195.5764276 -0.195576E+03  0.104E-01    2.02       0.0  T
   2   -195.5764300 -0.245349E-05  0.614E-02    2.02       1.0  T
   3   -195.5764111  0.189027E-04  0.113E-02    2.02       1.0  T
   4   -195.5764322 -0.211025E-04  0.154E-03    2.02       5.9  T
   5   -195.5764324 -0.165397E-06  0.723E-04    2.02      12.6  T
   6   -195.5764324 -0.657928E-08  0.328E-04    2.02      27.8  T
     SCC iter.                  ...        0 min,  0.471 sec
     gradient                   ...        0 min,  0.034 sec
 * total energy  :  -191.7944870 Eh     change       -0.3815797E-02 Eh
   gradient norm :     0.0063587 Eh/α   predicted    -0.3735599E-02 (  -2.10%)
   displ. norm   :     0.9430621 α      lambda       -0.3763266E-02
   maximum displ.:     0.4921184 α      in ANC's #1, #3, #6, ...

........................................................................
.............................. CYCLE   28 ..............................
........................................................................
   1   -195.5795439 -0.195580E+03  0.102E-01    2.02       0.0  T
   2   -195.5795461 -0.219792E-05  0.598E-02    2.02       1.0  T
   3   -195.5795285  0.176463E-04  0.110E-02    2.02       1.0  T
   4   -195.5795482 -0.196954E-04  0.142E-03    2.02       6.4  T
   5   -195.5795483 -0.137494E-06  0.689E-04    2.02      13.2  T
   6   -195.5795483 -0.632576E-08  0.304E-04    2.02      30.0  T
     SCC iter.                  ...        0 min,  0.515 sec
     gradient                   ...        0 min,  0.033 sec
 * total energy  :  -191.7981329 Eh     change       -0.3645864E-02 Eh
   gradient norm :     0.0076060 Eh/α   predicted    -0.3555096E-02 (  -2.49%)
   displ. norm   :     0.9442536 α      lambda       -0.3634789E-02
   maximum displ.:     0.5053047 α      in ANC's #1, #3, #6, ...

........................................................................
.............................. CYCLE   29 ..............................
........................................................................
   1   -195.5843469 -0.195584E+03  0.100E-01    2.03       0.0  T
   2   -195.5843491 -0.219013E-05  0.589E-02    2.03       1.0  T
   3   -195.5843320  0.171042E-04  0.110E-02    2.03       1.0  T
   4   -195.5843511 -0.190788E-04  0.140E-03    2.03       6.5  T
   5   -195.5843512 -0.144702E-06  0.669E-04    2.03      13.7  T
   6   -195.5843512 -0.618067E-08  0.298E-04    2.03      30.6  T
     SCC iter.                  ...        0 min,  0.516 sec
     gradient                   ...        0 min,  0.033 sec
 * total energy  :  -191.8016641 Eh     change       -0.3531257E-02 Eh
   gradient norm :     0.0074365 Eh/α   predicted    -0.3437814E-02 (  -2.65%)
   displ. norm   :     0.9486791 α      lambda       -0.3526135E-02
   maximum displ.:     0.5222275 α      in ANC's #1, #3, #6, ...

........................................................................
.............................. CYCLE   30 ..............................
........................................................................
   1   -195.5898077 -0.195590E+03  0.101E-01    2.03       0.0  T
   2   -195.5898100 -0.224406E-05  0.591E-02    2.03       1.0  T
   3   -195.5897932  0.167917E-04  0.110E-02    2.03       1.0  T
   4   -195.5898119 -0.187346E-04  0.142E-03    2.03       6.4  T
   5   -195.5898121 -0.154763E-06  0.660E-04    2.03      13.8  T
   6   -195.5898121 -0.597433E-08  0.300E-04    2.03      30.4  T
     SCC iter.                  ...        0 min,  0.519 sec
     gradient                   ...        0 min,  0.033 sec
 * total energy  :  -191.8050929 Eh     change       -0.3428725E-02 Eh
   gradient norm :     0.0059034 Eh/α   predicted    -0.3349820E-02 (  -2.30%)
   displ. norm   :     0.9533806 α      lambda       -0.3401943E-02
   maximum displ.:     0.5405928 α      in ANC's #1, #3, #6, ...

........................................................................
.............................. CYCLE   31 ..............................
........................................................................
   1   -195.5948029 -0.195595E+03  0.102E-01    2.03       0.0  T
   2   -195.5948051 -0.221577E-05  0.599E-02    2.03       1.0  T
   3   -195.5947897  0.153896E-04  0.106E-02    2.03       1.0  T
   4   -195.5948070 -0.172284E-04  0.138E-03    2.03       6.6  T
   5   -195.5948071 -0.144401E-06  0.655E-04    2.03      13.9  T
   6   -195.5948071 -0.630931E-08  0.298E-04    2.03      30.6  T
     SCC iter.                  ...        0 min,  0.506 sec
     gradient                   ...        0 min,  0.032 sec
 * total energy  :  -191.8084059 Eh     change       -0.3313095E-02 Eh
   gradient norm :     0.0044290 Eh/α   predicted    -0.3247046E-02 (  -1.99%)
   displ. norm   :     0.9557367 α      lambda       -0.3271898E-02
   maximum displ.:     0.5575306 α      in ANC's #1, #3, #6, ...

........................................................................
.............................. CYCLE   32 ..............................
........................................................................
   1   -195.5990998 -0.195599E+03  0.103E-01    2.04       0.0  T
   2   -195.5991020 -0.211651E-05  0.604E-02    2.04       1.0  T
   3   -195.5990886  0.133641E-04  0.985E-03    2.04       1.0  T
   4   -195.5991036 -0.150494E-04  0.131E-03    2.04       7.0  T
   5   -195.5991038 -0.121899E-06  0.648E-04    2.04      14.1  T
   6   -195.5991038 -0.668959E-08  0.291E-04    2.04      31.4  T
     SCC iter.                  ...        0 min,  0.509 sec
     gradient                   ...        0 min,  0.032 sec
 * total energy  :  -191.8115998 Eh     change       -0.3193875E-02 Eh
   gradient norm :     0.0038035 Eh/α   predicted    -0.3130284E-02 (  -1.99%)
   displ. norm   :     0.9561497 α      lambda       -0.3151713E-02
   maximum displ.:     0.5725277 α      in ANC's #1, #3, #6, ...

........................................................................
.............................. CYCLE   33 ..............................
........................................................................
   1   -195.6026799 -0.195603E+03  0.104E-01    2.04       0.0  T
   2   -195.6026820 -0.203277E-05  0.608E-02    2.04       1.0  T
   3   -195.6026704  0.115648E-04  0.921E-03    2.04       1.0  T
   4   -195.6026835 -0.131190E-04  0.124E-03    2.04       7.4  T
   5   -195.6026836 -0.988962E-07  0.645E-04    2.04      14.2  T
   6   -195.6026836 -0.745456E-08  0.286E-04    2.04      31.9  T
     SCC iter.                  ...        0 min,  0.516 sec
     gradient                   ...        0 min,  0.033 sec
 * total energy  :  -191.8146824 Eh     change       -0.3082612E-02 Eh
   gradient norm :     0.0037204 Eh/α   predicted    -0.3016547E-02 (  -2.14%)
   displ. norm   :     0.9565635 α      lambda       -0.3049986E-02
   maximum displ.:     0.5869343 α      in ANC's #1, #3, #2, ...

........................................................................
.............................. CYCLE   34 ..............................
........................................................................
   1   -195.6066076 -0.195607E+03  0.104E-01    2.04       0.0  T
   2   -195.6066095 -0.195327E-05  0.611E-02    2.04       1.0  T
   3   -195.6065995  0.997868E-05  0.858E-03    2.04       1.1  T
   4   -195.6066110 -0.114118E-04  0.119E-03    2.04       7.6  T
   5   -195.6066110 -0.851619E-07  0.637E-04    2.04      14.3  T
   6   -195.6066111 -0.736608E-08  0.275E-04    2.04      33.2  T
     SCC iter.                  ...        0 min,  0.521 sec
     gradient                   ...        0 min,  0.034 sec
 * total energy  :  -191.8176684 Eh     change       -0.2986000E-02 Eh
   gradient norm :     0.0036112 Eh/α   predicted    -0.2920388E-02 (  -2.20%)
   displ. norm   :     0.9584270 α      lambda       -0.2963419E-02
   maximum displ.:     0.6003270 α      in ANC's #1, #3, #2, ...

........................................................................
.............................. CYCLE   35 ..............................
........................................................................
   1   -195.6087445 -0.195609E+03  0.105E-01    2.05       0.0  T
   2   -195.6087465 -0.196713E-05  0.618E-02    2.05       1.0  T
   3   -195.6087371  0.942259E-05  0.851E-03    2.05       1.1  T
   4   -195.6087479 -0.108407E-04  0.115E-03    2.05       7.9  T
   5   -195.6087480 -0.686715E-07  0.652E-04    2.05      14.0  T
   6   -195.6087480 -0.872774E-08  0.284E-04    2.05      32.2  T
     SCC iter.                  ...        0 min,  0.504 sec
     gradient                   ...        0 min,  0.032 sec
 * total energy  :  -191.8205643 Eh     change       -0.2895903E-02 Eh
   gradient norm :     0.0044360 Eh/α   predicted    -0.2842788E-02 (  -1.83%)
   displ. norm   :     0.9588145 α      lambda       -0.2905206E-02
   maximum displ.:     0.6138359 α      in ANC's #1, #3, #2, ...

........................................................................
.............................. CYCLE   36 ..............................
........................................................................
   1   -195.6142259 -0.195614E+03  0.105E-01    2.05       0.0  T
   2   -195.6142278 -0.193092E-05  0.616E-02    2.05       1.0  T
   3   -195.6142199  0.794153E-05  0.778E-03    2.05       1.2  T
   4   -195.6142291 -0.923962E-05  0.119E-03    2.05       7.6  T
   5   -195.6142292 -0.742764E-07  0.646E-04    2.05      14.1  T
   6   -195.6142292 -0.808978E-08  0.263E-04    2.05      34.7  T
     SCC iter.                  ...        0 min,  0.510 sec
     gradient                   ...        0 min,  0.032 sec
 * total energy  :  -191.8233831 Eh     change       -0.2818749E-02 Eh
   gradient norm :     0.0043539 Eh/α   predicted    -0.2788020E-02 (  -1.09%)
   displ. norm   :     0.9653454 α      lambda       -0.2834787E-02
   maximum displ.:     0.6277944 α      in ANC's #1, #3, #2, ...

........................................................................
.............................. CYCLE   37 ..............................
........................................................................
   1   -195.6149832 -0.195615E+03  0.107E-01    2.05       0.0  T
   2   -195.6149851 -0.189762E-05  0.627E-02    2.05       1.0  T
   3   -195.6149768  0.823892E-05  0.814E-03    2.05       1.1  T
   4   -195.6149864 -0.958529E-05  0.111E-03    2.05       8.2  T
   5   -195.6149865 -0.533566E-07  0.654E-04    2.05      14.0  T
   6   -195.6149865 -0.863668E-08  0.275E-04    2.05      33.2  T
     SCC iter.                  ...        0 min,  0.519 sec
     gradient                   ...        0 min,  0.033 sec
 * total energy  :  -191.8261490 Eh     change       -0.2765956E-02 Eh
   gradient norm :     0.0037291 Eh/α   predicted    -0.2738253E-02 (  -1.00%)
   displ. norm   :     0.9611254 α      lambda       -0.2732110E-02
   maximum displ.:     0.6387540 α      in ANC's #1, #3, #2, ...

........................................................................
.............................. CYCLE   38 ..............................
........................................................................
   1   -195.6197130 -0.195620E+03  0.106E-01    2.06       0.0  T
   2   -195.6197148 -0.187211E-05  0.620E-02    2.06       1.0  T
   3   -195.6197079  0.699317E-05  0.747E-03    2.06       1.2  T
   4   -195.6197161 -0.821453E-05  0.107E-03    2.06       8.5  T
   5   -195.6197161 -0.533680E-07  0.625E-04    2.06      14.6  T
   6   -195.6197161 -0.903023E-08  0.264E-04    2.06      34.6  T
     SCC iter.                  ...        0 min,  0.509 sec
     gradient                   ...        0 min,  0.033 sec
 * total energy  :  -191.8288257 Eh     change       -0.2676691E-02 Eh
   gradient norm :     0.0040660 Eh/α   predicted    -0.2627966E-02 (  -1.82%)
   displ. norm   :     0.9695261 α      lambda       -0.2692825E-02
   maximum displ.:     0.6532816 α      in ANC's #1, #3, #2, ...

........................................................................
.............................. CYCLE   39 ..............................
........................................................................
   1   -195.6202422 -0.195620E+03  0.108E-01    2.06       0.0  T
   2   -195.6202440 -0.182738E-05  0.632E-02    2.06       1.0  T
   3   -195.6202367  0.727249E-05  0.770E-03    2.06       1.2  T
   4   -195.6202452 -0.853010E-05  0.113E-03    2.06       8.1  T
   5   -195.6202453 -0.593372E-07  0.631E-04    2.06      14.5  T
   6   -195.6202453 -0.502496E-08  0.263E-04    2.06      34.7  T
     SCC iter.                  ...        0 min,  0.524 sec
     gradient                   ...        0 min,  0.033 sec
 * total energy  :  -191.8314406 Eh     change       -0.2614819E-02 Eh
   gradient norm :     0.0050609 Eh/α   predicted    -0.2612020E-02 (  -0.11%)
   displ. norm   :     0.9689567 α      lambda       -0.2647956E-02
   maximum displ.:     0.6672972 α      in ANC's #1, #3, #2, ...

........................................................................
.............................. CYCLE   40 ..............................
........................................................................
   1   -195.6252506 -0.195625E+03  0.106E-01    2.06       0.0  T
   2   -195.6252524 -0.179495E-05  0.624E-02    2.06       1.0  T
   3   -195.6252465  0.591473E-05  0.701E-03    2.06       1.3  T
   4   -195.6252535 -0.706051E-05  0.106E-03    2.06       8.6  T
   5   -195.6252536 -0.465623E-07  0.626E-04    2.06      14.6  T
   6   -195.6252536 -0.953568E-08  0.245E-04    2.06      37.3  T
     SCC iter.                  ...        0 min,  0.510 sec
     gradient                   ...        0 min,  0.033 sec
 * total energy  :  -191.8340165 Eh     change       -0.2575927E-02 Eh
   gradient norm :     0.0039429 Eh/α   predicted    -0.2567043E-02 (  -0.34%)
   displ. norm   :     0.9763208 α      lambda       -0.2590360E-02
   maximum displ.:     0.6817907 α      in ANC's #1, #3, #2, ...

........................................................................
.............................. CYCLE   41 ..............................
........................................................................
   1   -195.6293024 -0.195629E+03  0.108E-01    2.07       0.0  T
   2   -195.6293045 -0.209150E-05  0.635E-02    2.07       1.0  T
   3   -195.6292988  0.569475E-05  0.695E-03    2.07       1.3  T
   4   -195.6293057 -0.688884E-05  0.115E-03    2.07       8.0  T
   5   -195.6293057 -0.523258E-07  0.670E-04    2.07      13.6  T
   6   -195.6293058 -0.120290E-07  0.284E-04    2.07      32.1  T
     SCC iter.                  ...        0 min,  0.520 sec
     gradient                   ...        0 min,  0.034 sec
 * total energy  :  -191.8365149 Eh     change       -0.2498377E-02 Eh
   gradient norm :     0.0058930 Eh/α   predicted    -0.2529758E-02 (   1.26%)
   displ. norm   :     0.9730089 α      lambda       -0.2536215E-02
   maximum displ.:     0.6839697 α      in ANC's #1, #3, #2, ...

........................................................................
.............................. CYCLE   42 ..............................
........................................................................
   1   -195.6276530 -0.195628E+03  0.108E-01    2.07       0.0  T
   2   -195.6276547 -0.168759E-05  0.632E-02    2.07       1.0  T
   3   -195.6276493  0.537621E-05  0.679E-03    2.07       1.3  T
   4   -195.6276558 -0.648288E-05  0.106E-03    2.07       8.6  T
   5   -195.6276558 -0.472237E-07  0.619E-04    2.07      14.8  T
   6   -195.6276558 -0.581352E-08  0.233E-04    2.07      39.1  T
     SCC iter.                  ...        0 min,  0.517 sec
     gradient                   ...        0 min,  0.034 sec
 * total energy  :  -191.8389658 Eh     change       -0.2450965E-02 Eh
   gradient norm :     0.0041055 Eh/α   predicted    -0.2468690E-02 (   0.72%)
   displ. norm   :     0.9717340 α      lambda       -0.2448157E-02
   maximum displ.:     0.6956006 α      in ANC's #1, #3, #2, ...
 * RMSD in coord.:     1.7743284 α      energy gain  -0.7033320E-01 Eh

generating ANC from model Hessian ...
Using Lindh-Hessian (1995)
 Shifting diagonal of input Hessian by    9.8692897967070439E-003
 Lowest  eigenvalues of input Hessian
    0.000000    0.000000    0.000000    0.000000    0.000000    0.000000
    0.010000    0.010061    0.010134    0.010310    0.010447    0.010452
    0.010746    0.010773    0.011074    0.011453    0.011477    0.011801
 Highest eigenvalues
    2.123595    2.141090    2.151722    2.159883    2.172282    2.173915


........................................................................
.............................. CYCLE   43 ..............................
........................................................................
   1   -195.6349593 -0.195635E+03  0.106E-01    2.07       0.0  T
   2   -195.6349610 -0.167968E-05  0.624E-02    2.07       1.0  T
   3   -195.6349552  0.578289E-05  0.689E-03    2.07       1.3  T
   4   -195.6349621 -0.688071E-05  0.104E-03    2.07       8.8  T
   5   -195.6349621 -0.553661E-07  0.598E-04    2.07      15.3  T
   6   -195.6349621 -0.755236E-08  0.211E-04    2.07      43.2  T
     SCC iter.                  ...        0 min,  0.518 sec
     gradient                   ...        0 min,  0.032 sec
 * total energy  :  -191.8413451 Eh     change       -0.2379276E-02 Eh
   gradient norm :     0.0048199 Eh/α   predicted     0.0000000E+00 (-100.00%)
   displ. norm   :     0.2294004 α      lambda       -0.5890521E-03
   maximum displ.:     0.1972954 α      in ANC's #1, #3, #12, ...

........................................................................
.............................. CYCLE   44 ..............................
........................................................................
   1   -195.6358162 -0.195636E+03  0.269E-02    2.07       0.0  T
   2   -195.6358163 -0.147480E-06  0.158E-02    2.07       1.0  T
   3   -195.6358159  0.432330E-06  0.182E-03    2.07       5.0  T
   4   -195.6358164 -0.517699E-06  0.349E-04    2.07      26.1  T
   5   -195.6358164 -0.462808E-08  0.188E-04    2.07      48.4  T
     SCC iter.                  ...        0 min,  0.423 sec
     gradient                   ...        0 min,  0.033 sec
 * total energy  :  -191.8419210 Eh     change       -0.5758692E-03 Eh
   gradient norm :     0.0026879 Eh/α   predicted    -0.3102971E-03 ( -46.12%)
   displ. norm   :     0.3797323 α      lambda       -0.9191929E-03
   maximum displ.:     0.2930283 α      in ANC's #1, #3, #12, ...

........................................................................
.............................. CYCLE   45 ..............................
........................................................................
   1   -195.6368063 -0.195637E+03  0.468E-02    2.07       0.0  T
   2   -195.6368066 -0.343575E-06  0.275E-02    2.07       1.0  T
   3   -195.6368060  0.633802E-06  0.224E-03    2.07       4.1  T
   4   -195.6368068 -0.832965E-06  0.456E-04    2.07      20.0  T
   5   -195.6368068 -0.391481E-08  0.276E-04    2.07      33.0  T
     SCC iter.                  ...        0 min,  0.413 sec
     gradient                   ...        0 min,  0.033 sec
 * total energy  :  -191.8428208 Eh     change       -0.8997875E-03 Eh
   gradient norm :     0.0032877 Eh/α   predicted    -0.5258690E-03 ( -41.56%)
   displ. norm   :     0.5455028 α      lambda       -0.1267019E-02
   maximum displ.:     0.4042427 α      in ANC's #1, #3, #12, ...

........................................................................
.............................. CYCLE   46 ..............................
........................................................................
   1   -195.6373237 -0.195637E+03  0.676E-02    2.08       0.0  T
   2   -195.6373243 -0.628604E-06  0.396E-02    2.08       1.0  T
   3   -195.6373232  0.112852E-05  0.295E-03    2.08       3.1  T
   4   -195.6373247 -0.151399E-05  0.595E-04    2.08      15.3  T
   5   -195.6373247 -0.516684E-08  0.368E-04    2.08      24.8  T
   6   -195.6373247 -0.441443E-08  0.113E-04    2.08      81.0  T
     SCC iter.                  ...        0 min,  0.520 sec
     gradient                   ...        0 min,  0.033 sec
 * total energy  :  -191.8440648 Eh     change       -0.1244091E-02 Eh
   gradient norm :     0.0049577 Eh/α   predicted    -0.8220242E-03 ( -33.93%)
   displ. norm   :     0.6728226 α      lambda       -0.1527432E-02
   maximum displ.:     0.4918804 α      in ANC's #1, #3, #12, ...

........................................................................
.............................. CYCLE   47 ..............................
........................................................................
   1   -195.6374011 -0.195637E+03  0.828E-02    2.08       0.0  T
   2   -195.6374020 -0.909134E-06  0.486E-02    2.08       1.0  T
   3   -195.6374001  0.186224E-05  0.376E-03    2.08       2.4  T
   4   -195.6374026 -0.243374E-05  0.734E-04    2.08      12.4  T
   5   -195.6374026 -0.120999E-07  0.459E-04    2.08      19.9  T
   6   -195.6374026 -0.600284E-08  0.137E-04    2.08      66.7  T
     SCC iter.                  ...        0 min,  0.521 sec
     gradient                   ...        0 min,  0.033 sec
 * total energy  :  -191.8455645 Eh     change       -0.1499704E-02 Eh
   gradient norm :     0.0054058 Eh/α   predicted    -0.1109472E-02 ( -26.02%)
   displ. norm   :     0.7495203 α      lambda       -0.1670850E-02
   maximum displ.:     0.5469432 α      in ANC's #1, #3, #12, ...

........................................................................
.............................. CYCLE   48 ..............................
........................................................................
   1   -195.6377149 -0.195638E+03  0.915E-02    2.08       0.0  T
   2   -195.6377160 -0.109636E-05  0.537E-02    2.08       1.0  T
   3   -195.6377135  0.245082E-05  0.430E-03    2.08       2.1  T
   4   -195.6377166 -0.314346E-05  0.822E-04    2.08      11.1  T
   5   -195.6377167 -0.188062E-07  0.512E-04    2.08      17.8  T
   6   -195.6377167 -0.717822E-08  0.152E-04    2.08      60.1  T
     SCC iter.                  ...        0 min,  0.525 sec
     gradient                   ...        0 min,  0.033 sec
 * total energy  :  -191.8472010 Eh     change       -0.1636446E-02 Eh
   gradient norm :     0.0046534 Eh/α   predicted    -0.1304749E-02 ( -20.27%)
   displ. norm   :     0.7887085 α      lambda       -0.1718333E-02
   maximum displ.:     0.5776799 α      in ANC's #1, #3, #12, ...

........................................................................
.............................. CYCLE   49 ..............................
........................................................................
   1   -195.6386771 -0.195639E+03  0.956E-02    2.08       0.0  T
   2   -195.6386783 -0.118492E-05  0.561E-02    2.08       1.0  T
   3   -195.6386755  0.282707E-05  0.465E-03    2.08       2.0  T
   4   -195.6386791 -0.357637E-05  0.870E-04    2.08      10.5  T
   5   -195.6386791 -0.232680E-07  0.538E-04    2.08      17.0  T
   6   -195.6386791 -0.756168E-08  0.161E-04    2.08      56.6  T
     SCC iter.                  ...        0 min,  0.521 sec
     gradient                   ...        0 min,  0.033 sec
 * total energy  :  -191.8488806 Eh     change       -0.1679574E-02 Eh
   gradient norm :     0.0035181 Eh/α   predicted    -0.1393620E-02 ( -17.03%)
   displ. norm   :     0.7997226 α      lambda       -0.1693851E-02
   maximum displ.:     0.5900211 α      in ANC's #1, #3, #6, ...

........................................................................
.............................. CYCLE   50 ..............................
........................................................................
   1   -195.6401740 -0.195640E+03  0.964E-02    2.08       0.0  T
   2   -195.6401752 -0.118614E-05  0.565E-02    2.08       1.0  T
   3   -195.6401723  0.290006E-05  0.477E-03    2.08       1.9  T
   4   -195.6401759 -0.364856E-05  0.878E-04    2.08      10.4  T
   5   -195.6401760 -0.241240E-07  0.540E-04    2.08      16.9  T
   6   -195.6401760 -0.711546E-08  0.165E-04    2.08      55.2  T
     SCC iter.                  ...        0 min,  0.521 sec
     gradient                   ...        0 min,  0.033 sec
 * total energy  :  -191.8505363 Eh     change       -0.1655738E-02 Eh
   gradient norm :     0.0029006 Eh/α   predicted    -0.1388586E-02 ( -16.13%)
   displ. norm   :     0.8005370 α      lambda       -0.1646545E-02
   maximum displ.:     0.5953972 α      in ANC's #1, #3, #2, ...

........................................................................
.............................. CYCLE   51 ..............................
........................................................................
   1   -195.6419096 -0.195642E+03  0.961E-02    2.09       0.0  T
   2   -195.6419108 -0.115671E-05  0.564E-02    2.09       1.0  T
   3   -195.6419080  0.276691E-05  0.474E-03    2.09       1.9  T
   4   -195.6419115 -0.349026E-05  0.866E-04    2.09      10.5  T
   5   -195.6419115 -0.228472E-07  0.530E-04    2.09      17.2  T
   6   -195.6419116 -0.647901E-08  0.167E-04    2.09      54.6  T
     SCC iter.                  ...        0 min,  0.497 sec
     gradient                   ...        0 min,  0.033 sec
 * total energy  :  -191.8521477 Eh     change       -0.1611360E-02 Eh
   gradient norm :     0.0028438 Eh/α   predicted    -0.1350877E-02 ( -16.17%)
   displ. norm   :     0.7968306 α      lambda       -0.1593821E-02
   maximum displ.:     0.5976494 α      in ANC's #1, #3, #2, ...

........................................................................
.............................. CYCLE   52 ..............................
........................................................................
   1   -195.6437667 -0.195644E+03  0.953E-02    2.09       0.0  T
   2   -195.6437678 -0.111751E-05  0.559E-02    2.09       1.0  T
   3   -195.6437652  0.254102E-05  0.462E-03    2.09       2.0  T
   4   -195.6437685 -0.322935E-05  0.847E-04    2.09      10.8  T
   5   -195.6437685 -0.211364E-07  0.516E-04    2.09      17.7  T
   6   -195.6437685 -0.596330E-08  0.168E-04    2.09      54.5  T
     SCC iter.                  ...        0 min,  0.516 sec
     gradient                   ...        0 min,  0.032 sec
 * total energy  :  -191.8537090 Eh     change       -0.1561315E-02 Eh
   gradient norm :     0.0028025 Eh/α   predicted    -0.1302901E-02 ( -16.55%)
   displ. norm   :     0.7910419 α      lambda       -0.1539983E-02
   maximum displ.:     0.5986654 α      in ANC's #1, #3, #2, ...

........................................................................
.............................. CYCLE   53 ..............................
........................................................................
   1   -195.6457532 -0.195646E+03  0.941E-02    2.09       0.0  T
   2   -195.6457543 -0.107435E-05  0.552E-02    2.09       1.0  T
   3   -195.6457520  0.228686E-05  0.447E-03    2.09       2.0  T
   4   -195.6457549 -0.293660E-05  0.826E-04    2.09      11.1  T
   5   -195.6457549 -0.197699E-07  0.501E-04    2.09      18.2  T
   6   -195.6457549 -0.557665E-08  0.166E-04    2.09      55.0  T
     SCC iter.                  ...        0 min,  0.519 sec
     gradient                   ...        0 min,  0.032 sec
 * total energy  :  -191.8552180 Eh     change       -0.1509014E-02 Eh
   gradient norm :     0.0026174 Eh/α   predicted    -0.1251812E-02 ( -17.04%)
   displ. norm   :     0.7841652 α      lambda       -0.1484952E-02
   maximum displ.:     0.5992283 α      in ANC's #1, #3, #2, ...

........................................................................
.............................. CYCLE   54 ..............................
........................................................................
   1   -195.6478022 -0.195648E+03  0.926E-02    2.09       0.0  T
   2   -195.6478032 -0.102903E-05  0.543E-02    2.09       1.0  T
   3   -195.6478011  0.204088E-05  0.429E-03    2.09       2.1  T
   4   -195.6478038 -0.265263E-05  0.804E-04    2.09      11.4  T
   5   -195.6478038 -0.186222E-07  0.487E-04    2.09      18.7  T
   6   -195.6478038 -0.527808E-08  0.163E-04    2.09      56.1  T
     SCC iter.                  ...        0 min,  0.518 sec
     gradient                   ...        0 min,  0.033 sec
 * total energy  :  -191.8566729 Eh     change       -0.1454912E-02 Eh
   gradient norm :     0.0023953 Eh/α   predicted    -0.1199037E-02 ( -17.59%)
   displ. norm   :     0.7753875 α      lambda       -0.1426564E-02
   maximum displ.:     0.5985060 α      in ANC's #1, #3, #2, ...

........................................................................
.............................. CYCLE   55 ..............................
........................................................................
   1   -195.6497972 -0.195650E+03  0.909E-02    2.09       0.0  T
   2   -195.6497982 -0.981080E-06  0.533E-02    2.09       1.0  T
   3   -195.6497964  0.183297E-05  0.411E-03    2.09       2.2  T
   4   -195.6497988 -0.240935E-05  0.782E-04    2.09      11.7  T
   5   -195.6497988 -0.175335E-07  0.473E-04    2.09      19.3  T
   6   -195.6497988 -0.502928E-08  0.158E-04    2.09      57.6  T
     SCC iter.                  ...        0 min,  0.501 sec
     gradient                   ...        0 min,  0.033 sec
 * total energy  :  -191.8580707 Eh     change       -0.1397749E-02 Eh
   gradient norm :     0.0022215 Eh/α   predicted    -0.1142130E-02 ( -18.29%)
   displ. norm   :     0.7646752 α      lambda       -0.1365940E-02
   maximum displ.:     0.5962592 α      in ANC's #1, #3, #2, ...

........................................................................
.............................. CYCLE   56 ..............................
........................................................................
   1   -195.6516625 -0.195652E+03  0.891E-02    2.09       0.0  T
   2   -195.6516634 -0.932550E-06  0.522E-02    2.09       1.0  T
   3   -195.6516617  0.168547E-05  0.397E-03    2.09       2.3  T
   4   -195.6516639 -0.223092E-05  0.760E-04    2.09      12.0  T
   5   -195.6516640 -0.164924E-07  0.460E-04    2.09      19.8  T
   6   -195.6516640 -0.479318E-08  0.154E-04    2.09      59.3  T
     SCC iter.                  ...        0 min,  0.493 sec
     gradient                   ...        0 min,  0.033 sec
 * total energy  :  -191.8594093 Eh     change       -0.1338659E-02 Eh
   gradient norm :     0.0021077 Eh/α   predicted    -0.1082329E-02 ( -19.15%)
   displ. norm   :     0.7529796 α      lambda       -0.1305516E-02
   maximum displ.:     0.5931932 α      in ANC's #1, #3, #2, ...

........................................................................
.............................. CYCLE   57 ..............................
........................................................................
   1   -195.6533788 -0.195653E+03  0.873E-02    2.10       0.0  T
   2   -195.6533797 -0.885758E-06  0.512E-02    2.10       1.0  T
   3   -195.6533781  0.157716E-05  0.384E-03    2.10       2.4  T
   4   -195.6533802 -0.209533E-05  0.739E-04    2.10      12.4  T
   5   -195.6533802 -0.154925E-07  0.447E-04    2.10      20.4  T
   6   -195.6533802 -0.457874E-08  0.149E-04    2.10      61.1  T
     SCC iter.                  ...        0 min,  0.505 sec
     gradient                   ...        0 min,  0.033 sec
 * total energy  :  -191.8606897 Eh     change       -0.1280361E-02 Eh
   gradient norm :     0.0020325 Eh/α   predicted    -0.1022857E-02 ( -20.11%)
   displ. norm   :     0.7397792 α      lambda       -0.1246058E-02
   maximum displ.:     0.5887341 α      in ANC's #1, #3, #2, ...

........................................................................
.............................. CYCLE   58 ..............................
........................................................................
   1   -195.6549633 -0.195655E+03  0.855E-02    2.10       0.0  T
   2   -195.6549641 -0.840137E-06  0.501E-02    2.10       1.0  T
   3   -195.6549626  0.148656E-05  0.372E-03    2.10       2.5  T
   4   -195.6549646 -0.197891E-05  0.718E-04    2.10      12.7  T
   5   -195.6549646 -0.144841E-07  0.435E-04    2.10      21.0  T
   6   -195.6549646 -0.438197E-08  0.145E-04    2.10      62.9  T
     SCC iter.                  ...        0 min,  0.517 sec
     gradient                   ...        0 min,  0.032 sec
 * total energy  :  -191.8619121 Eh     change       -0.1222441E-02 Eh
   gradient norm :     0.0019758 Eh/α   predicted    -0.9639960E-03 ( -21.14%)
   displ. norm   :     1.0905085 α      lambda       -0.1190599E-02
   maximum displ.:     0.8766662 α      in ANC's #1, #3, #2, ...

........................................................................
.............................. CYCLE   59 ..............................
........................................................................
   1   -195.6562819 -0.195656E+03  0.126E-01    2.10       0.0  T
   2   -195.6562837 -0.178129E-05  0.737E-02    2.10       1.0  T
   3   -195.6562808  0.290843E-05  0.524E-03    2.10       1.7  T
   4   -195.6562847 -0.394598E-05  0.104E-03    2.10       8.8  T
   5   -195.6562847 -0.275714E-07  0.633E-04    2.10      14.4  T
   6   -195.6562847 -0.100470E-07  0.210E-04    2.10      43.6  T
     SCC iter.                  ...        0 min,  0.493 sec
     gradient                   ...        0 min,  0.033 sec
 * total energy  :  -191.8636479 Eh     change       -0.1735741E-02 Eh
   gradient norm :     0.0020545 Eh/α   predicted    -0.9099365E-03 ( -47.58%)
   displ. norm   :     0.7069508 α      lambda       -0.1112298E-02
   maximum displ.:     0.5764658 α      in ANC's #1, #3, #2, ...

........................................................................
.............................. CYCLE   60 ..............................
........................................................................
   1   -195.6582413 -0.195658E+03  0.811E-02    2.10       0.0  T
   2   -195.6582421 -0.743053E-06  0.475E-02    2.10       1.0  T
   3   -195.6582407  0.134474E-05  0.350E-03    2.10       2.6  T
   4   -195.6582425 -0.178095E-05  0.675E-04    2.10      13.5  T
   5   -195.6582425 -0.136492E-07  0.409E-04    2.10      22.3  T
   6   -195.6582425 -0.396651E-08  0.135E-04    2.10      67.4  T
     SCC iter.                  ...        0 min,  0.508 sec
     gradient                   ...        0 min,  0.033 sec
 * total energy  :  -191.8647389 Eh     change       -0.1091082E-02 Eh
   gradient norm :     0.0019157 Eh/α   predicted    -0.8341006E-03 ( -23.55%)
   displ. norm   :     1.0566974 α      lambda       -0.1079364E-02
   maximum displ.:     0.8697190 α      in ANC's #1, #3, #2, ...

........................................................................
.............................. CYCLE   61 ..............................
........................................................................
   1   -195.6591757 -0.195659E+03  0.122E-01    2.10       0.0  T
   2   -195.6591773 -0.162790E-05  0.717E-02    2.10       1.0  T
   3   -195.6591747  0.257812E-05  0.490E-03    2.10       1.9  T
   4   -195.6591783 -0.353106E-05  0.998E-04    2.10       9.1  T
   5   -195.6591783 -0.240705E-07  0.605E-04    2.10      15.1  T
   6   -195.6591783 -0.955959E-08  0.199E-04    2.10      46.0  T
     SCC iter.                  ...        0 min,  0.512 sec
     gradient                   ...        0 min,  0.033 sec
 * total energy  :  -191.8663127 Eh     change       -0.1573762E-02 Eh
   gradient norm :     0.0022501 Eh/α   predicted    -0.8075110E-03 ( -48.69%)
   displ. norm   :     0.6929135 α      lambda       -0.1031156E-02
   maximum displ.:     0.5794413 α      in ANC's #1, #3, #2, ...

........................................................................
.............................. CYCLE   62 ..............................
........................................................................
   1   -195.6620066 -0.195662E+03  0.791E-02    2.10       0.0  T
   2   -195.6620073 -0.705299E-06  0.463E-02    2.10       1.0  T
   3   -195.6620060  0.128280E-05  0.337E-03    2.10       2.7  T
   4   -195.6620077 -0.169178E-05  0.652E-04    2.10      14.0  T
   5   -195.6620077 -0.139857E-07  0.401E-04    2.10      22.7  T
   6   -195.6620077 -0.423415E-08  0.130E-04    2.10      70.1  T
     SCC iter.                  ...        0 min,  0.518 sec
     gradient                   ...        0 min,  0.032 sec
 * total energy  :  -191.8673177 Eh     change       -0.1005023E-02 Eh
   gradient norm :     0.0023334 Eh/α   predicted    -0.7631224E-03 ( -24.07%)
   displ. norm   :     0.7049384 α      lambda       -0.1027676E-02
   maximum displ.:     0.5943656 α      in ANC's #1, #3, #2, ...

........................................................................
.............................. CYCLE   63 ..............................
........................................................................
   1   -195.6628224 -0.195663E+03  0.825E-02    2.10       0.0  T
   2   -195.6628232 -0.764019E-06  0.483E-02    2.10       1.0  T
   3   -195.6628219  0.132539E-05  0.341E-03    2.10       2.7  T
   4   -195.6628237 -0.176917E-05  0.713E-04    2.10      12.8  T
   5   -195.6628237 -0.147486E-07  0.420E-04    2.10      21.7  T
   6   -195.6628237 -0.410705E-08  0.145E-04    2.10      63.0  T
     SCC iter.                  ...        0 min,  0.496 sec
     gradient                   ...        0 min,  0.033 sec
 * total energy  :  -191.8683180 Eh     change       -0.1000253E-02 Eh
   gradient norm :     0.0024739 Eh/α   predicted    -0.7691885E-03 ( -23.10%)
   displ. norm   :     0.6823658 α      lambda       -0.9703118E-03
   maximum displ.:     0.5806773 α      in ANC's #1, #3, #2, ...

........................................................................
.............................. CYCLE   64 ..............................
........................................................................
   1   -195.6628827 -0.195663E+03  0.803E-02    2.11       0.0  T
   2   -195.6628833 -0.672693E-06  0.470E-02    2.11       1.0  T
   3   -195.6628823  0.108241E-05  0.306E-03    2.11       3.0  T
   4   -195.6628837 -0.148208E-05  0.651E-04    2.11      14.0  T
   5   -195.6628838 -0.103338E-07  0.388E-04    2.11      23.5  T
   6   -195.6628838 -0.420184E-08  0.126E-04    2.11      72.7  T
     SCC iter.                  ...        0 min,  0.506 sec
     gradient                   ...        0 min,  0.032 sec
 * total energy  :  -191.8692652 Eh     change       -0.9472412E-03 Eh
[...]
    12   6 C    3.976 --    11 C    1.644    14 C    1.204    86 H    0.968
    13   6 C    3.981 --    16 C    1.374    14 C    1.231     9 C    1.168
    14   6 C    3.979 --    15 C    1.367    13 C    1.231    12 C    1.204
    15   6 C    3.967 --    18 C    1.392    14 C    1.367    87 H    0.965
                            16 C    0.103
    16   6 C    3.983 --    17 C    1.405    13 C    1.374    88 H    0.956
                            15 C    0.103
    17   6 C    3.982 --    16 C    1.405    18 C    1.231    21 C    1.137
    18   6 C    3.978 --    15 C    1.392    17 C    1.231    19 C    1.183
    19   6 C    3.975 --    20 C    1.671    18 C    1.183    89 H    0.968
    20   6 C    3.974 --    19 C    1.671    22 C    1.182    90 H    0.968
    21   6 C    3.979 --    24 C    1.397    22 C    1.241    17 C    1.137
    22   6 C    3.978 --    23 C    1.383    21 C    1.241    20 C    1.182
    23   6 C    3.964 --    22 C    1.383    26 C    1.378    91 H    0.966
                            24 C    0.102
    24   6 C    3.981 --    21 C    1.397    25 C    1.390    92 H    0.954
                            23 C    0.102
    25   6 C    3.981 --    24 C    1.390    26 C    1.242    29 C    1.142
    26   6 C    3.978 --    23 C    1.378    25 C    1.242    27 C    1.186
    27   6 C    3.975 --    28 C    1.668    26 C    1.186    93 H    0.968
    28   6 C    3.975 --    27 C    1.668    30 C    1.186    94 H    0.968
    29   6 C    3.981 --    32 C    1.388    30 C    1.243    25 C    1.142
    30   6 C    3.978 --    31 C    1.377    29 C    1.243    28 C    1.186
    31   6 C    3.964 --    34 C    1.384    30 C    1.377    95 H    0.966
                            32 C    0.101
    32   6 C    3.979 --    33 C    1.399    29 C    1.388    96 H    0.955
                            31 C    0.101
    33   6 C    3.980 --    32 C    1.399    34 C    1.240    37 C    1.135
    34   6 C    3.978 --    31 C    1.384    33 C    1.240    35 C    1.182
    35   6 C    3.975 --    36 C    1.673    34 C    1.182    97 H    0.968
    36   6 C    3.975 --    35 C    1.673    38 C    1.181    98 H    0.967
    37   6 C    3.980 --    40 C    1.409    38 C    1.231    33 C    1.135
    38   6 C    3.979 --    39 C    1.396    37 C    1.231    36 C    1.181
    39   6 C    3.967 --    38 C    1.396    42 C    1.364    99 H    0.965
                            40 C    0.105
    40   6 C    3.980 --    37 C    1.409    41 C    1.377   100 H    0.956
                            39 C    0.105
    41   6 C    3.980 --    40 C    1.377    42 C    1.235    45 C    1.160
    42   6 C    3.979 --    39 C    1.364    41 C    1.235    43 C    1.208
    43   6 C    3.980 --    44 C    1.633    42 C    1.208   101 H    0.967
    44   6 C    3.978 --    43 C    1.633    46 C    1.215   102 H    0.963
    45   6 C    3.977 --    46 C    1.315    48 C    1.285    41 C    1.160
    46   6 C    3.978 --    45 C    1.315    50 C    1.235    44 C    1.215
    47   6 C    3.974 --    48 C    1.557    49 C    1.272   103 H    0.968
    48   6 C    3.977 --    47 C    1.557    45 C    1.285   104 H    0.964
    49   6 C    3.976 --    50 C    1.318    47 C    1.272    52 C    1.204
    50   6 C    3.978 --    49 C    1.318    46 C    1.235    54 C    1.168
    51   6 C    3.976 --    52 C    1.644    53 C    1.204   105 H    0.968
    52   6 C    3.976 --    51 C    1.644    49 C    1.204   106 H    0.967
    53   6 C    3.979 --    56 C    1.367    54 C    1.231    51 C    1.204
    54   6 C    3.981 --    55 C    1.374    53 C    1.231    50 C    1.168
    55   6 C    3.983 --    58 C    1.405    54 C    1.374   107 H    0.956
                            56 C    0.103
    56   6 C    3.967 --    57 C    1.392    53 C    1.367   108 H    0.965
                            55 C    0.103
    57   6 C    3.978 --    56 C    1.392    58 C    1.231    60 C    1.183
    58   6 C    3.982 --    55 C    1.405    57 C    1.231    62 C    1.137
    59   6 C    3.974 --    60 C    1.671    61 C    1.182   109 H    0.968
    60   6 C    3.975 --    59 C    1.671    57 C    1.183   110 H    0.968
    61   6 C    3.978 --    64 C    1.383    62 C    1.241    59 C    1.182
    62   6 C    3.979 --    63 C    1.397    61 C    1.241    58 C    1.137
    63   6 C    3.981 --    62 C    1.397    66 C    1.390   111 H    0.954
                            64 C    0.102
    64   6 C    3.964 --    61 C    1.383    65 C    1.378   112 H    0.966
                            63 C    0.102
    65   6 C    3.978 --    64 C    1.378    66 C    1.242    68 C    1.186
    66   6 C    3.981 --    63 C    1.390    65 C    1.242    70 C    1.142
    67   6 C    3.975 --    68 C    1.668    69 C    1.186   113 H    0.968
    68   6 C    3.975 --    67 C    1.668    65 C    1.186   114 H    0.968
    69   6 C    3.978 --    72 C    1.377    70 C    1.243    67 C    1.186
    70   6 C    3.981 --    71 C    1.388    69 C    1.243    66 C    1.142
    71   6 C    3.979 --    74 C    1.399    70 C    1.388   115 H    0.955
                            72 C    0.101
    72   6 C    3.964 --    73 C    1.384    69 C    1.377   116 H    0.966
                            71 C    0.101
    73   6 C    3.978 --    72 C    1.384    74 C    1.240    76 C    1.182
    74   6 C    3.980 --    71 C    1.399    73 C    1.240    78 C    1.135
    75   6 C    3.975 --    76 C    1.673    77 C    1.181   117 H    0.967
    76   6 C    3.975 --    75 C    1.673    73 C    1.182   118 H    0.968
    77   6 C    3.979 --    80 C    1.396    78 C    1.231    75 C    1.181
    78   6 C    3.980 --    79 C    1.409    77 C    1.231    74 C    1.135
    79   6 C    3.980 --    78 C    1.409     2 C    1.377   119 H    0.956
                            80 C    0.105
    80   6 C    3.967 --    77 C    1.396     1 C    1.364   120 H    0.965
                            79 C    0.105
    81   1 H    0.998 --     3 C    0.963
    82   1 H    0.998 --     4 C    0.967
    83   1 H    0.998 --     7 C    0.964
    84   1 H    0.998 --     8 C    0.968
    85   1 H    0.998 --    11 C    0.967
    86   1 H    0.998 --    12 C    0.968
    87   1 H    0.998 --    15 C    0.965
    88   1 H    0.997 --    16 C    0.956
    89   1 H    0.998 --    19 C    0.968
    90   1 H    0.998 --    20 C    0.968
    91   1 H    0.998 --    23 C    0.966
    92   1 H    0.998 --    24 C    0.954
    93   1 H    0.998 --    27 C    0.968
    94   1 H    0.998 --    28 C    0.968
    95   1 H    0.998 --    31 C    0.966
    96   1 H    0.998 --    32 C    0.955
    97   1 H    0.998 --    35 C    0.968
    98   1 H    0.998 --    36 C    0.967
    99   1 H    0.998 --    39 C    0.965
   100   1 H    0.998 --    40 C    0.956
   101   1 H    0.998 --    43 C    0.967
   102   1 H    0.998 --    44 C    0.963
   103   1 H    0.998 --    47 C    0.968
   104   1 H    0.998 --    48 C    0.964
   105   1 H    0.998 --    51 C    0.968
   106   1 H    0.998 --    52 C    0.967
   107   1 H    0.997 --    55 C    0.956
   108   1 H    0.998 --    56 C    0.965
   109   1 H    0.998 --    59 C    0.968
   110   1 H    0.998 --    60 C    0.968
   111   1 H    0.998 --    63 C    0.954
   112   1 H    0.998 --    64 C    0.966
   113   1 H    0.998 --    67 C    0.968
   114   1 H    0.998 --    68 C    0.968
   115   1 H    0.998 --    71 C    0.955
   116   1 H    0.998 --    72 C    0.966
   117   1 H    0.998 --    75 C    0.967
   118   1 H    0.998 --    76 C    0.968
   119   1 H    0.998 --    79 C    0.956
   120   1 H    0.998 --    80 C    0.965
 ---------------------------------------------------------------------------

Topologies differ in total number of bonds
Writing topology from bond orders to xtbtopo.mol

molecular dipole:
                 x           y           z       tot (Debye)
 q only:        0.000       0.000       0.044
   full:        0.000       0.000       0.087       0.221
molecular quadrupole (traceless):
                xx          xy          yy          xz          yz          zz
 q only:        4.535      -2.440      -7.824       0.010       0.048       3.289
  q+dip:       22.575     -13.031     -33.847       0.044       0.194      11.272
   full:        9.061      -5.649     -15.186       0.023       0.093       6.125

           -------------------------------------------------
          |                Geometry Summary                 |
           -------------------------------------------------

      molecular mass/u    :     1001.1765020
   center of mass at/Å    :        0.0158905       0.0164659       0.1351722
  moments of inertia/u·Å² :        0.1554590E+05   0.3063167E+05   0.3329764E+05
rotational constants/cm⁻¹ :        0.1084378E-02   0.5503335E-03   0.5062710E-03

 * 130 selected distances

     #   Z          #   Z                                           value/Å
     1   6 C        2   6 C                                       1.4218159
     1   6 C        4   6 C                                       1.4219850
     3   6 C        4   6 C                                       1.3541493
     3   6 C        5   6 C                                       1.4260300
     5   6 C        6   6 C                                       1.4102455
     6   6 C        7   6 C                                       1.4111667
     7   6 C        8   6 C                                       1.3652778
     5   6 C        9   6 C                                       1.4253323
     8   6 C       10   6 C                                       1.4095499
     9   6 C       10   6 C                                       1.4055002
    10   6 C       11   6 C                                       1.4256772
    11   6 C       12   6 C                                       1.3542857
    12   6 C       14   6 C                                       1.4247199
    13   6 C       14   6 C                                       1.4222928
    14   6 C       15   6 C                                       1.3943028
    13   6 C       16   6 C                                       1.3926430
    16   6 C       17   6 C                                       1.3876022
    15   6 C       18   6 C                                       1.3902278
    17   6 C       18   6 C                                       1.4217249
    18   6 C       19   6 C                                       1.4302345
    19   6 C       20   6 C                                       1.3512522
    20   6 C       22   6 C                                       1.4303580 (max)
    21   6 C       22   6 C                                       1.4194544
    22   6 C       23   6 C                                       1.3919645
    21   6 C       24   6 C                                       1.3877872
    24   6 C       25   6 C                                       1.3891950
    23   6 C       26   6 C                                       1.3928246
    25   6 C       26   6 C                                       1.4196172
    26   6 C       27   6 C                                       1.4294255
    27   6 C       28   6 C                                       1.3515749
    28   6 C       30   6 C                                       1.4294750
    29   6 C       30   6 C                                       1.4191092
    30   6 C       31   6 C                                       1.3922787
    29   6 C       32   6 C                                       1.3904940
    32   6 C       33   6 C                                       1.3881981
    31   6 C       34   6 C                                       1.3915403
    33   6 C       34   6 C                                       1.4204938
    34   6 C       35   6 C                                       1.4299456
    35   6 C       36   6 C                                       1.3501376
    36   6 C       38   6 C                                       1.4301358
    37   6 C       38   6 C                                       1.4219893
    38   6 C       39   6 C                                       1.3880455
    37   6 C       40   6 C                                       1.3891068
    40   6 C       41   6 C                                       1.3940791
    39   6 C       42   6 C                                       1.3937352
    41   6 C       42   6 C                                       1.4218159
    42   6 C       43   6 C                                       1.4219850
    43   6 C       44   6 C                                       1.3541493
    44   6 C       46   6 C                                       1.4260302
    45   6 C       46   6 C                                       1.4102456
    45   6 C       48   6 C                                       1.4111660
    47   6 C       48   6 C                                       1.3652779
    47   6 C       49   6 C                                       1.4095498
    46   6 C       50   6 C                                       1.4253316
    49   6 C       50   6 C                                       1.4054994
    49   6 C       52   6 C                                       1.4256774
    51   6 C       52   6 C                                       1.3542856
    51   6 C       53   6 C                                       1.4247204
    53   6 C       54   6 C                                       1.4222929
    54   6 C       55   6 C                                       1.3926428
    53   6 C       56   6 C                                       1.3943026
    56   6 C       57   6 C                                       1.3902278
    55   6 C       58   6 C                                       1.3876027
    57   6 C       58   6 C                                       1.4217247
    57   6 C       60   6 C                                       1.4302345
    59   6 C       60   6 C                                       1.3512523
    59   6 C       61   6 C                                       1.4303580
    61   6 C       62   6 C                                       1.4194541
    62   6 C       63   6 C                                       1.3877873
    61   6 C       64   6 C                                       1.3919646
    64   6 C       65   6 C                                       1.3928244
    63   6 C       66   6 C                                       1.3891951
    65   6 C       66   6 C                                       1.4196173
    65   6 C       68   6 C                                       1.4294255
    67   6 C       68   6 C                                       1.3515751
    67   6 C       69   6 C                                       1.4294751
    69   6 C       70   6 C                                       1.4191093
    70   6 C       71   6 C                                       1.3904942
    69   6 C       72   6 C                                       1.3922790
    72   6 C       73   6 C                                       1.3915402
    71   6 C       74   6 C                                       1.3881979
    73   6 C       74   6 C                                       1.4204938
    73   6 C       76   6 C                                       1.4299455
    75   6 C       76   6 C                                       1.3501377
    75   6 C       77   6 C                                       1.4301356
    77   6 C       78   6 C                                       1.4219893
     2   6 C       79   6 C                                       1.3940791
    78   6 C       79   6 C                                       1.3891068
     1   6 C       80   6 C                                       1.3937352
    77   6 C       80   6 C                                       1.3880456
     3   6 C       81   1 H                                       1.0793284
     4   6 C       82   1 H                                       1.0807223
     7   6 C       83   1 H                                       1.0789346
     8   6 C       84   1 H                                       1.0807416
    11   6 C       85   1 H                                       1.0808298
    12   6 C       86   1 H                                       1.0806088
    15   6 C       87   1 H                                       1.0815094
    16   6 C       88   1 H                                       1.0784279
    19   6 C       89   1 H                                       1.0810054
    20   6 C       90   1 H                                       1.0809722
    23   6 C       91   1 H                                       1.0816786
    24   6 C       92   1 H                                       1.0772219 (min)
    27   6 C       93   1 H                                       1.0810036
    28   6 C       94   1 H                                       1.0810207
    31   6 C       95   1 H                                       1.0816668
    32   6 C       96   1 H                                       1.0775671
    35   6 C       97   1 H                                       1.0808999
    36   6 C       98   1 H                                       1.0809515
    39   6 C       99   1 H                                       1.0815249
    40   6 C      100   1 H                                       1.0782277
    43   6 C      101   1 H                                       1.0807220
    44   6 C      102   1 H                                       1.0793285
    47   6 C      103   1 H                                       1.0807428
    48   6 C      104   1 H                                       1.0789351
    51   6 C      105   1 H                                       1.0806088
    52   6 C      106   1 H                                       1.0808290
    55   6 C      107   1 H                                       1.0784281
    56   6 C      108   1 H                                       1.0815095
    59   6 C      109   1 H                                       1.0809722
    60   6 C      110   1 H                                       1.0810053
    63   6 C      111   1 H                                       1.0772220
    64   6 C      112   1 H                                       1.0816788
    67   6 C      113   1 H                                       1.0810209
    68   6 C      114   1 H                                       1.0810034
    71   6 C      115   1 H                                       1.0775671
    72   6 C      116   1 H                                       1.0816665
    75   6 C      117   1 H                                       1.0809518
    76   6 C      118   1 H                                       1.0809002
    79   6 C      119   1 H                                       1.0782273
    80   6 C      120   1 H                                       1.0815244

 * 2 distinct bonds (by element types)

   Z      Z             #   av. dist./Å        max./Å        min./Å
   1 H    6 C          40     1.0802422     1.0816788     1.0772219
   6 C    6 C          90     1.4019329     1.4303580     1.3501376


optimized geometry written to: xtbopt.xyz


           -------------------------------------------------
          | TOTAL ENERGY             -191.886873542180 Eh   |
          | GRADIENT NORM               0.000172045472 Eh/α |
          | HOMO-LUMO GAP               2.102702527667 eV   |
           -------------------------------------------------

------------------------------------------------------------------------
 * finished run on 2026/03/17 at 18:32:35.809     
------------------------------------------------------------------------
 total:
 * wall-time:     0 d,  0 h,  1 min, 40.335 sec
 *  cpu-time:     0 d,  0 h,  5 min,  4.010 sec
 * ratio c/w:     3.030 speedup
 SCF:
 * wall-time:     0 d,  0 h,  0 min,  0.993 sec
 *  cpu-time:     0 d,  0 h,  0 min,  2.847 sec
 * ratio c/w:     2.866 speedup
 ANC optimizer:
 * wall-time:     0 d,  0 h,  1 min, 39.323 sec
 *  cpu-time:     0 d,  0 h,  5 min,  1.111 sec
 * ratio c/w:     3.032 speedup

